[Molden Format]
made by pyscf v[2.12.1]
[Atoms] (AU)
C   1   6    -3.67285279844341     1.45125297188223    -1.08007296649516
C   2   6    -0.85428848913213     0.99836120886897    -0.76511231331390
C   3   6    -0.29562875492696    -1.22688578911262     0.95805335063200
O   4   8    -1.96427582017915    -2.49417392276844     1.96567421751133
C   5   6     2.38402178696755    -1.93077097599061     1.47003684956041
C   6   6     4.40909009657396    -0.74835044258901     0.52368090363947
H   7   1    -4.00731542523018     3.06437988359470    -2.33016459241744
H   8   1    -4.60501690116886    -0.20514866808278    -1.89841886473806
H   9   1    -4.57011365964815     1.84824663613086     0.74192537376549
H   10   1     0.01296352121452     2.69590218656576     0.04074249524562
H   11   1    -0.02224207648613     0.62445999786252    -2.62282647732883
H   12   1     2.60714175049494    -3.54321758629825     2.72105444128372
H   13   1     4.28357448738035     0.86679847607675    -0.73073819510806
H   14   1     6.29494228258366    -1.40085397614008     1.00620357228591
[GTO]
1 0
 s    3 1.00
             71.616837    0.15432897000916
             13.045096    0.53532814003178
             3.5305122     0.4446345400264
 s    3 1.00
             2.9412494  -0.099967230075964
             0.6834831    0.39951283030359
             0.2222899    0.70011547053201
 p    3 1.00
             2.9412494    0.15591627210511
             0.6834831    0.60768372820466
             0.2222899    0.39195739529202

2 0
 s    3 1.00
             71.616837    0.15432897000916
             13.045096    0.53532814003178
             3.5305122     0.4446345400264
 s    3 1.00
             2.9412494  -0.099967230075964
             0.6834831    0.39951283030359
             0.2222899    0.70011547053201
 p    3 1.00
             2.9412494    0.15591627210511
             0.6834831    0.60768372820466
             0.2222899    0.39195739529202

3 0
 s    3 1.00
             71.616837    0.15432897000916
             13.045096    0.53532814003178
             3.5305122     0.4446345400264
 s    3 1.00
             2.9412494  -0.099967230075964
             0.6834831    0.39951283030359
             0.2222899    0.70011547053201
 p    3 1.00
             2.9412494    0.15591627210511
             0.6834831    0.60768372820466
             0.2222899    0.39195739529202

4 0
 s    3 1.00
             130.70932    0.15432896872316
             23.808861    0.53532813557095
             6.4436083    0.44463453632131
 s    3 1.00
             5.0331513  -0.099967228656673
             1.1695961    0.39951282463148
              0.380389    0.70011546059208
 p    3 1.00
             5.0331513    0.15591626847816
             1.1695961    0.60768371406861
              0.380389    0.39195738617424

5 0
 s    3 1.00
             71.616837    0.15432897000916
             13.045096    0.53532814003178
             3.5305122     0.4446345400264
 s    3 1.00
             2.9412494  -0.099967230075964
             0.6834831    0.39951283030359
             0.2222899    0.70011547053201
 p    3 1.00
             2.9412494    0.15591627210511
             0.6834831    0.60768372820466
             0.2222899    0.39195739529202

6 0
 s    3 1.00
             71.616837    0.15432897000916
             13.045096    0.53532814003178
             3.5305122     0.4446345400264
 s    3 1.00
             2.9412494  -0.099967230075964
             0.6834831    0.39951283030359
             0.2222899    0.70011547053201
 p    3 1.00
             2.9412494    0.15591627210511
             0.6834831    0.60768372820466
             0.2222899    0.39195739529202

7 0
 s    3 1.00
            3.42525091    0.15432897070298
            0.62391373    0.53532814243847
             0.1688554    0.44463454202535

8 0
 s    3 1.00
            3.42525091    0.15432897070298
            0.62391373    0.53532814243847
             0.1688554    0.44463454202535

9 0
 s    3 1.00
            3.42525091    0.15432897070298
            0.62391373    0.53532814243847
             0.1688554    0.44463454202535

10 0
 s    3 1.00
            3.42525091    0.15432897070298
            0.62391373    0.53532814243847
             0.1688554    0.44463454202535

11 0
 s    3 1.00
            3.42525091    0.15432897070298
            0.62391373    0.53532814243847
             0.1688554    0.44463454202535

12 0
 s    3 1.00
            3.42525091    0.15432897070298
            0.62391373    0.53532814243847
             0.1688554    0.44463454202535

13 0
 s    3 1.00
            3.42525091    0.15432897070298
            0.62391373    0.53532814243847
             0.1688554    0.44463454202535

14 0
 s    3 1.00
            3.42525091    0.15432897070298
            0.62391373    0.53532814243847
             0.1688554    0.44463454202535

[5d]
[7f]
[9g]

[MO]
 Sym= A
 Ene=    -20.29014835
 Spin= Alpha
 Occup=    2.00000
   1    5.165639608979e-06
   2    -3.9578156367521e-05
   3    -0.00012361668567628
   4    4.748318187492e-05
   5    -3.5296198180728e-05
   6    -3.2295016261826e-05
   7    0.0002646603265673
   8    -0.00041845436963617
   9    -0.00023573144802534
  10    0.0001888586556959
  11    0.00052610624628673
  12    -0.0070276509766002
  13    0.0044915417720465
  14    0.0034967070572601
  15    -0.0027787440341525
  16      0.99429344867416
  17     0.025803971898471
  18    0.0039248472281114
  19    0.0029875074041683
  20    -0.0023752509183082
  21    -3.3258892708243e-05
  22    0.00042586296727917
  23    -0.0003664327209474
  24    -0.00027633150754283
  25    0.00021974413151478
  26    8.3034793491148e-06
  27    2.3057315348822e-05
  28    4.2865677282378e-05
  29    -4.6386649672593e-05
  30    3.550847556175e-05
  31    -1.1123094671777e-05
  32    -8.9157071432181e-05
  33    -8.9152513730563e-05
  34    1.610284785616e-05
  35    1.6101907183838e-05
  36    -0.00024937375448264
  37    -1.7377431758859e-05
  38    -1.1913315372275e-05
 Sym= A
 Ene=    -11.09859996
 Spin= Alpha
 Occup=    2.00000
   1    -0.00056587501799564
   2    0.00037804431778143
   3    0.00022102954453136
   4    3.7644599051642e-05
   5    -3.2198365789232e-05
   6    -0.0025690042925083
   7    -0.0063879412791856
   8    -0.00089194713301515
   9    0.0049435644253726
  10    -0.0038327796582998
  11      0.99340645693423
  12     0.030407759649869
  13    -0.00091537557701906
  14    -0.0021095525731464
  15     0.001652701928732
  16    0.00011804842974077
  17    -0.005640527422056
  18     -0.00120630594034
  19    -0.00071301882644339
  20    0.00057046504304438
  21    -0.0016027282212854
  22    -0.0064697391862584
  23    0.0049970609015188
  24    -0.0011671487189571
  25    0.00084162550900897
  26    -0.00017269232993077
  27    0.00036842253773316
  28    -0.0003349043323982
  29    4.3423684380506e-05
  30    -2.9338349568359e-05
  31    -0.00048458918691227
  32    -4.250522024067e-05
  33    -4.2499175415414e-05
  34    0.00035177263820686
  35    0.0003517707413899
  36    8.1957547975065e-05
  37    1.4827644308353e-05
  38    -0.00022797828083068
 Sym= A
 Ene=     -11.0531619
 Spin= Alpha
 Occup=    2.00000
   1    -0.0096680350500212
   2    -0.0062087018035476
   3    -0.0041986672602414
   4    0.00067962407152928
   5    -0.00047305051915885
   6      0.99187780424969
   7     0.037668751067327
   8    3.9079907836116e-05
   9    0.0001720433891484
  10    -0.00013430592183385
  11    0.0038848388936707
  12    -0.0059010243071572
  13    0.0011741531701723
  14    -0.0035527235039711
  15    0.0027473872518517
  16    -1.838591459882e-05
  17    0.00022419156131655
  18    -0.00010857814443223
  19    0.00021862366087808
  20    -0.00016858515160788
  21    -0.00035159670597311
  22    0.00031601611337271
  23    -0.00016579937200687
  24    0.00010208972261034
  25    -7.720298859547e-05
  26    -0.00050016757077084
  27    -5.9407405671259e-05
  28    0.00016656373576779
  29    9.0783381401587e-07
  30    -2.9112148056808e-06
  31    0.00011098392791018
  32    0.00012708375787135
  33    0.00012707837252305
  34    -0.0069537659420477
  35    -0.0069537284049012
  36    -0.00011508840327638
  37    -9.2551986496969e-05
  38    -2.1274144460899e-05
 Sym= A
 Ene=    -11.04001359
 Spin= Alpha
 Occup=    2.00000
   1       0.9919041707787
   2     0.037664630231905
   3    -0.00019438639600291
   4    6.2738988126976e-05
   5    -4.6248899846042e-05
   6     0.010638160430512
   7    -0.0053981658007791
   8     0.004233615935934
   9    -0.00072129272742653
  10    0.00050499733648268
  11    0.00060996836657085
  12     7.76832728499e-05
  13    0.00015696715259716
  14    4.5354520385889e-05
  15    -3.7347638284501e-05
  16    7.3475216897155e-06
  17    2.5468686274772e-05
  18    7.8186672512291e-05
  19    -5.0984236117876e-05
  20    3.8615958527666e-05
  21    -0.00062970128531069
  22    -0.00011650647038036
  23    6.6249618443024e-05
  24    -5.3357148883909e-05
  25    4.0619446747432e-05
  26    -0.00018360520733804
  27    7.8284728833317e-06
  28    2.0767603908203e-05
  29    -4.9904703521696e-06
  30    3.6064464038646e-06
  31    -0.0069254369823231
  32    -0.0069122841581156
  33    -0.0069121991434308
  34    -3.3168960521443e-05
  35    -3.3174066655986e-05
  36    -2.7444325359011e-06
  37    -3.6856407012873e-05
  38    -9.4579905198741e-06
 Sym= A
 Ene=    -11.02867086
 Spin= Alpha
 Occup=    2.00000
   1    0.0006842809293075
   2    -0.00013988615004866
   3    -0.00014509261238106
   4    6.8674141453529e-05
   5    -5.1489774809435e-05
   6    0.00032295211037353
   7    0.00046146365496299
   8    2.9477946774641e-05
   9    -0.0002609219591982
  10    0.00020252742847804
  11    0.0029781582657703
  12    -0.0065493613228158
  13    -0.004876432198611
  14    0.0013170214647741
  15    -0.00095977623562231
  16    -3.5774763846938e-05
  17    0.00035978922107146
  18    0.00046596007906599
  19    -7.3299206746463e-05
  20    5.0841065592735e-05
  21      0.98473213674821
  22      0.03417254798368
  23    0.0014784422940226
  24    6.3629511376889e-05
  25    -6.9164710231521e-05
  26      0.12398397184284
  27    -0.0031261550563083
  28    0.0034160237274696
  29    0.0019779934433939
  30     -0.00158348078732
  31    4.6118453575315e-05
  32    -2.0736099324132e-05
  33    -2.0735895381118e-05
  34    -0.00011194353370865
  35    -0.00011194527747045
  36    -0.0066141281252251
  37    -0.00064949392190545
  38    -0.00089702598945781
 Sym= A
 Ene=    -11.02585042
 Spin= Alpha
 Occup=    2.00000
   1    9.916959218895e-05
   2    -1.1724693705391e-05
   3    -7.1733390133461e-06
   4    -7.8556722362267e-06
   5    6.2037478969571e-06
   6    0.00049502219497862
   7    -5.5110477143594e-05
   8    -0.00011064684611972
   9    9.2646471463381e-05
  10    -7.0590175503447e-05
  11    -0.000276686258214
  12    0.0011499571199628
  13    0.00073587047741451
  14    -0.00025319367379838
  15    0.00018719046587647
  16    1.8972454031073e-05
  17    -0.00015582815692883
  18    -0.00013947017865721
  19    8.770119277583e-07
  20    1.1606412146438e-06
  21     -0.12344520819338
  22    -0.012109125328717
  23    -0.0039438891026239
  24    -0.0021659839896152
  25    0.0017367048664995
  26      0.98448935986017
  27     0.036701902290798
  28    -0.0015917997924988
  29    -0.0010292819412474
  30    0.00082165494849694
  31    -5.8938436682436e-06
  32    2.8734567453543e-06
  33    2.8737877321127e-06
  34    -5.6519785137723e-06
  35    -5.6548413260516e-06
  36    0.00092341959735614
  37    -0.0067611967427552
  38    -0.0067535319295222
 Sym= A
 Ene=    -1.305250867
 Spin= Alpha
 Occup=    2.00000
   1    -0.0058115320148782
   2     0.014977544231294
   3    0.0059460781455273
   4    -0.0044382299525627
   5    0.0033729706658821
   6    -0.0033416000700306
   7    0.0061364936480036
   8    -0.0075386215362422
   9     0.016975063812933
  10    -0.013101803975523
  11     -0.08943926244112
  12      0.17786313185003
  13     -0.14949003354116
  14     -0.11709370109277
  15     0.093039249893421
  16     -0.22803018790301
  17      0.80839662035641
  18       0.1221764273017
  19     0.091016893551926
  20    -0.072398247099046
  21    -0.002398344512385
  22    9.3702416584116e-06
  23     0.011768780275918
  24    -0.0086634980003968
  25    0.0065818867145174
  26    -0.0016800671502099
  27    0.0064327337998965
  28    -0.0041139212787845
  29    -0.0025784134898256
  30     0.002059689703937
  31    -0.0026805574003867
  32    0.0053631452693763
  33    0.0053630446139823
  34    0.0081755392941621
  35    0.0081755894813002
  36    0.0096151722416524
  37    0.0032523102233744
  38    -0.0037595056927815
 Sym= A
 Ene=   -0.9762382823
 Spin= Alpha
 Occup=    2.00000
   1     -0.17108942546368
   2      0.47437062687897
   3     0.064953236226479
   4    -0.0052579820935062
   5    0.0032298665702241
   6     -0.13651930236109
   7      0.36988625972438
   8    -0.086139923333707
   9     0.092796229364678
  10    -0.071028248146282
  11    -0.00011086166353925
  12    -0.025968470431838
  13    -0.0010784348524448
  14    0.0039888433588665
  15    -0.0030879388544815
  16     0.014365711743391
  17    -0.053640833736646
  18    -0.010593923655761
  19     0.012473405188081
  20    -0.0095604098848877
  21    -0.045010075305137
  22      0.11778057890477
  23     0.060818549608024
  24     0.012642107679022
  25    -0.010636234558307
  26     -0.06222670014469
  27      0.16781630469829
  28    -0.031583672249157
  29    -0.015091427444352
  30     0.012155028083051
  31      0.11182957111964
  32      0.11578213242188
  33      0.11578028337967
  34        0.117143951692
  35       0.1171432486747
  36     0.030524012292255
  37     0.046992561070763
  38     0.037109720772675
 Sym= A
 Ene=   -0.9594759798
 Spin= Alpha
 Occup=    2.00000
   1     0.064121979934798
   2     -0.18052035056132
   3    -0.020664901407056
   4    0.0010723148160484
   5    -0.00056050905009854
   6     0.037006300339674
   7    -0.097218170394427
   8     0.042275719570862
   9    -0.029111925915791
  10      0.02208120517648
  11    0.0021660880977602
  12      -0.0158281594045
  13    -0.015769622751838
  14    0.0040822797512934
  15    -0.0029663131016357
  16    -0.0018216900985607
  17    0.0084931442473448
  18     0.015890523259762
  19    -0.0080185740915682
  20    0.0060258272998233
  21     -0.13383183616956
  22      0.33952198914843
  23      0.20809073588003
  24     0.030820219370616
  25     -0.02672128921906
  26     -0.19022166916411
  27      0.51296755144446
  28    -0.079071172999426
  29      -0.0566414893807
  30     0.045098047943231
  31    -0.043767989642124
  32    -0.045326197367837
  33    -0.045325452283777
  34    -0.024504097360854
  35    -0.024503776966865
  36       0.1100088485666
  37      0.13384178381996
  38       0.1281295269299
 Sym= A
 Ene=   -0.7838400166
 Spin= Alpha
 Occup=    2.00000
   1     -0.12226387367707
   2      0.37338047376385
   3     -0.18367438328162
   4    0.0072961653887791
   5    -0.0032489760184452
   6      0.14666027304536
   7     -0.44149266714029
   8     -0.12839972273544
   9     -0.14029103779515
  10      0.11079855160858
  11    0.0051538203527711
  12     0.014663958831813
  13    -0.0056047200620335
  14    0.0025037597953514
  15    -0.0018730477535812
  16    0.0020767932881567
  17    -0.011903113082405
  18    -0.0068227482831307
  19    -0.003609304827435
  20    0.0028971567307355
  21    -0.014905084782875
  22     0.042959870334041
  23      0.01579721355577
  24    -0.010902416125675
  25    0.0082696069418313
  26    -0.009109392894668
  27     0.024154977716181
  28     0.011460360624556
  29    -0.024104238104509
  30      0.01859422192158
  31      0.15405427900219
  32      0.16356233850648
  33      0.16355819936874
  34     -0.23780068247277
  35     -0.23779793716716
  36     0.027484057235939
  37    -0.020146639702992
  38     0.024476959931432
 Sym= A
 Ene=   -0.7072014251
 Spin= Alpha
 Occup=    2.00000
   1    -0.0069388374480126
   2     0.023645542178271
   3    -0.021054147587437
   4    0.0016894848946651
   5    -0.0010359228910528
   6      0.01494449917978
   7    -0.053385211721056
   8    0.0090568212753264
   9    0.0040513412000153
  10    -0.003270583879579
  11    0.0062882920426157
  12     3.66202870726e-05
  13     0.031741709076333
  14     0.014522351488033
  15    -0.011713028689551
  16    -0.020757319044525
  17     0.094115123976229
  18    -0.078647694552178
  19    0.0027718514903505
  20    -0.0011159558559411
  21      0.12931223212723
  22     -0.37977816393291
  23     -0.11507029820053
  24      0.19351399599084
  25     -0.14896867154631
  26    -0.096916507948624
  27      0.30513032124772
  28      0.15758186790233
  29      0.19176689391811
  30      -0.1512167878354
  31    0.0099044603835023
  32     0.015442763339633
  33      0.01544225380829
  34    -0.011965023815069
  35    -0.011964751819184
  36     -0.33601191110495
  37      0.26856145535892
  38      0.16719419395598
 Sym= A
 Ene=   -0.5891093997
 Spin= Alpha
 Occup=    2.00000
   1    0.0037382445225501
   2    -0.010533069560827
   3     0.081863798510913
   4    -0.032319970463469
   5     0.024338053129672
   6    -0.0060673466569868
   7      0.02115020192392
   8    -0.098736718735839
   9     0.010150538401896
  10    -0.0062403238480846
  11    -0.075111314850743
  12       0.2412042849962
  13     -0.15675872459788
  14     -0.14620215730744
  15      0.11580431809253
  16      0.09277166168344
  17      -0.4662273781711
  18      0.37716530287601
  19       0.2357539933638
  20     -0.18834198114448
  21     0.036074124778822
  22      -0.1083030770092
  23     -0.10522974688569
  24       -0.177806517388
  25      0.13966559237096
  26    -0.012974660726307
  27     0.057898403677609
  28      0.33467875933243
  29    0.0082596461634016
  30    -0.010851591117079
  31    -0.052979832724735
  32    -0.022968384245169
  33    -0.022676935469601
  34    -0.018473559645855
  35    -0.018848082777537
  36      0.10840277356807
  37     0.017823023971491
  38      0.26482796784918
 Sym= A
 Ene=   -0.5890105306
 Spin= Alpha
 Occup=    2.00000
   1    -2.7635144181644e-06
   2    8.4710201963014e-06
   3    0.0036877227270336
   4      0.22007081153028
   5      0.28292171157181
   6    4.4432873351364e-06
   7    -1.5490403251105e-05
   8    0.0046434878298026
   9      0.26949718140984
  10      0.34654736404224
  11    4.7571811093468e-05
  12    -0.00015203855827033
  13    0.00051076287445677
  14      0.02427375545597
  15     0.031021039671953
  16    -5.8795301450658e-05
  17    0.00029533998220674
  18    -0.00039528434779761
  19    -0.009469978144961
  20    -0.011862243292802
  21    -2.2370713625648e-05
  22    6.7076289589946e-05
  23    -5.3218030044685e-06
  24    -0.0040534033665384
  25    -0.005440530482971
  26    7.9682960600329e-06
  27    -3.5708586874399e-05
  28    -0.00024205182280305
  29    -0.0021153067625554
  30    -0.0027040212585725
  31    4.2420770511876e-05
  32     -0.23187238180666
  33      0.23189810435032
  34      0.29877842321897
  35     -0.29875775409209
  36    -6.7072119068408e-05
  37    -1.2587884201094e-05
  38    -0.00016251728079663
 Sym= A
 Ene=   -0.5619188466
 Spin= Alpha
 Occup=    2.00000
   1    -1.2442278303312e-05
   2    0.0023542839067754
   3    0.0027898051383817
   4    -0.075900436521724
   5     0.058995334038958
   6     0.014976202726858
   7    -0.056523049605093
   8     -0.04805281816759
   9    0.0081612440897204
  10    -0.0057049222795404
  11     -0.06101376920497
  12      0.17772668821437
  13     -0.17245153902218
  14     -0.10001443552797
  15     0.080060986403182
  16       0.0695099820073
  17     -0.35353961988303
  18      0.26073152380116
  19      0.28313367680037
  20     -0.22363761702261
  21    -0.020527341367926
  22     0.050005987755968
  23     0.095114895496447
  24      0.16113713423827
  25     -0.12657321411826
  26    -0.0026763372842328
  27    0.0021119455803302
  28     -0.38813584396019
  29      0.11009297759723
  30    -0.080485716513649
  31    -0.087714570632685
  32     0.032473177454939
  33     0.032477734385812
  34    -0.017107545655906
  35    -0.017114786896378
  36     -0.12768321789531
  37      0.14195429111198
  38     -0.35610935387133
 Sym= A
 Ene=   -0.5360342184
 Spin= Alpha
 Occup=    2.00000
   1    -0.00058826326794042
   2    -0.0045517609682625
   3      -0.1217671724944
   4      0.38754030618476
   5     -0.29977833604906
   6     0.021880667222534
   7    -0.064221432289091
   8      0.20444400029688
   9     0.015157633506652
  10    -0.014503692327508
  11    -0.018474890617918
  12     0.062801047118565
  13    -0.008406470172623
  14    -0.043360537656214
  15     0.033831090365848
  16     0.011768097385937
  17    -0.064838006504091
  18      0.26562651777432
  19    -0.081908257349825
  20     0.060188233655481
  21    0.0041045709315928
  22    -0.031455494926456
  23    -0.0027281600947213
  24    -0.064972795913907
  25     0.050565051462393
  26    0.0044080948902792
  27    -0.0093022235478667
  28    -0.042018227196686
  29      0.11415948572384
  30    -0.088225282079931
  31      0.45615871559096
  32     -0.12974609581193
  33     -0.12974266850782
  34     0.046264667330166
  35     0.046280334634368
  36     0.081729929602933
  37      0.14134882172527
  38    -0.098746666492793
 Sym= A
 Ene=   -0.5117185412
 Spin= Alpha
 Occup=    2.00000
   1    -9.0648045204982e-05
   2    0.0031266071498281
   3      0.12562333382209
   4       0.1683274729863
   5     -0.13256231757418
   6    0.0044397952464099
   7    -0.021850205441223
   8     -0.08723779261672
   9     0.035346282053127
  10    -0.026345990662062
  11    -0.023977991379211
  12     0.096172935121726
  13    -0.048860404080421
  14    -0.018718903733458
  15     0.015202616651838
  16     0.012549516658948
  17    -0.071747014492844
  18    -0.0020280158241125
  19      0.16059211553369
  20     -0.12486368518353
  21     0.007952185197981
  22    -0.029641089833329
  23      0.11887556370923
  24      0.25455772483534
  25     -0.19953869853364
  26    -0.017704501553928
  27     0.045833624827059
  28    -0.016289821921997
  29     -0.32081614306984
  30        0.249712785922
  31      0.17721830868134
  32     -0.12342532548226
  33     -0.12341642085332
  34     -0.03477635813836
  35    -0.034763667088768
  36     -0.31791590113907
  37     -0.36851147625068
  38      0.16878540185995
 Sym= A
 Ene=   -0.4755547253
 Spin= Alpha
 Occup=    2.00000
   1     0.016084767689595
   2    -0.065913251902279
   3     -0.46801180844568
   4     -0.09357886710486
   5       0.0788563708753
   6     0.012623006609034
   7    -0.054060206528977
   8      0.46290500960844
   9     0.046476366331228
  10    -0.042175663293291
  11    -0.020613593943535
  12     0.060041331015997
  13    -0.00020720330560533
  14    -0.049586456358851
  15     0.038575319518541
  16     0.013623134478896
  17     -0.07160003629333
  18      0.18247269810969
  19     0.019192076219627
  20    -0.017342508834629
  21     0.014334557479995
  22    -0.062865258971934
  23     0.050223833220832
  24     0.058036638855897
  25    -0.045799330045038
  26     0.001218135382353
  27    -0.0051809899893016
  28     0.042920229426385
  29     -0.13789645093232
  30      0.10667292634805
  31    -0.081160002105564
  32      0.21708067173566
  33      0.21694368926782
  34      0.19190230739531
  35      0.19178663607679
  36    -0.094533002496321
  37     -0.14969778288229
  38      0.10228091117899
 Sym= A
 Ene=   -0.4684888271
 Spin= Alpha
 Occup=    2.00000
   1    3.0283264743672e-06
   2    -1.1455708556243e-05
   3     0.004595570690012
   4      0.27556106451059
   5      0.35438372521552
   6    2.2063827875952e-06
   7    -9.3863580215396e-06
   8    -0.0036743912566357
   9     -0.22122045355019
  10     -0.28447453046269
  11    -3.3786327738028e-06
  12    9.1708301700341e-06
  13    -0.00041642847164583
  14    -0.024559311901754
  15    -0.031562287958898
  16    2.2236938011956e-06
  17    -1.1531364263474e-05
  18    0.00023452705018017
  19     0.011944092760103
  20     0.015353733396319
  21    2.558871640917e-06
  22    -1.1133140817176e-05
  23    4.8816449537742e-05
  24      0.00241989766472
  25     0.003094849618372
  26    4.9126009605161e-07
  27    -1.7499421256286e-06
  28    4.7550483005693e-05
  29    0.0022772182370257
  30    0.0029744768048513
  31    -2.4090969464934e-05
  32     -0.36418824469225
  33      0.36428116359465
  34     -0.30457801822084
  35      0.30465071880443
  36    -1.4296609252455e-05
  37    -2.4287490053524e-05
  38    1.7660608815092e-05
 Sym= A
 Ene=   -0.4300975867
 Spin= Alpha
 Occup=    2.00000
   1    -0.014350253472511
   2     0.051178511296727
   3      0.11173952626221
   4    -0.084174401964857
   5     0.063984790313681
   6    -0.020971582319644
   7      0.10305840847575
   8     -0.13057841938267
   9    -0.058121009670208
  10     0.046926823728463
  11    0.0019285830373683
  12    -0.0062260769071779
  13      0.11839057330796
  14    -0.084149029375552
  15       0.0638769830393
  16    -0.0024888727202061
  17     0.014172078549074
  18      0.61667387812735
  19     -0.52685678604222
  20      0.40157916201717
  21     0.016068413909904
  22    -0.092992504733127
  23     0.066210714478328
  24     0.083461625287776
  25    -0.065782424243648
  26    -0.012746408833271
  27       0.0465192025462
  28     -0.05444921401368
  29    -0.058977490945566
  30      0.04658726794358
  31     -0.10515828258369
  32    -0.0011192546533613
  33    -0.0011193381207794
  34    -0.054462645863418
  35    -0.054463330731718
  36     -0.11694165507265
  37    -0.053113678585498
  38    -0.0056456209157372
 Sym= A
 Ene=   -0.7389056036
 Spin= Alpha
 Occup=    1.98243
   1    -0.008030324245351
   2      0.02638124523538
   3     0.036606463188971
   4    -0.029869979571139
   5     0.022745901313558
   6     0.052518446059741
   7     -0.13638860705881
   8    -0.049890201236252
   9      0.29159766637751
  10     -0.22611437199336
  11      0.17155375675664
  12     -0.54151422263801
  13     -0.18926800257515
  14     -0.23125851766616
  15      0.18234871421272
  16    -0.017461271246698
  17     0.072077785957583
  18     0.056709561116304
  19     0.053535866839583
  20    -0.042384599289555
  21     0.047323319741169
  22     -0.12303338123047
  23       0.2197091923951
  24    -0.060860426428441
  25     0.044425723874897
  26    -0.015953783106904
  27     0.052513541170461
  28    -0.061114897631864
  29    -0.010296767960226
  30      0.00881668040876
  31    -0.056476354312279
  32     0.020141848363524
  33     0.020141797796947
  34     0.090069902825254
  35     0.090070447029673
  36     0.032071880601924
  37     0.029672126980608
  38    -0.046714915160945
 Sym= A
 Ene=   -0.5287907327
 Spin= Alpha
 Occup=    1.97914
   1     0.013607959027571
   2    -0.055005220667889
   3    -0.069379234903078
   4     0.028618945304005
   5    -0.021339823412154
   6    -0.059491326272105
   7      0.19511924146719
   8     0.074225733850015
   9     -0.28004848775033
  10      0.21681066392965
  11     0.022141920940374
  12    -0.055026379366794
  13     -0.39639191767275
  14      0.27247183013284
  15     -0.20665804213753
  16    -0.0035021590613014
  17     0.012658227870434
  18      0.14312513550586
  19    -0.082264731571456
  20     0.062084429347814
  21     0.096033738430521
  22     -0.30814258879726
  23      0.39523233802113
  24     -0.12237996294284
  25     0.089948777863977
  26    -0.012580857937813
  27     0.042359048484147
  28    -0.044624142516661
  29    -0.018253524794112
  30     0.014787173016699
  31     0.058462496070937
  32    -0.020102990919445
  33    -0.020102748244936
  34    -0.043254302838388
  35    -0.043254334871144
  36      0.10632400581298
  37     0.037952520719525
  38    -0.056952618638972
 Sym= A
 Ene=   -0.4071200236
 Spin= Alpha
 Occup=    1.90015
   1    -4.3782970494276e-08
   2    1.9710911704405e-07
   3    -9.5594796254009e-05
   4    -0.0056305087610441
   5    -0.0072397956260588
   6    6.493969299931e-09
   7    1.176757909811e-07
   8    -0.00039018140743515
   9    -0.022959578781342
  10    -0.029523299340254
  11    3.7528825379322e-07
  12    -1.5296184828398e-06
  13    0.0046560348246928
  14      0.27389618388063
  15      0.35219183903511
  16    -4.8490437176029e-08
  17    2.9223249017356e-07
  18    0.0036766477435985
  19      0.21628635611776
  20      0.27811303020869
  21    -1.330186785696e-06
  22    5.3377578771261e-06
  23    0.0052430566203719
  24       0.3083056247537
  25      0.39643774394494
  26    1.1425399585782e-06
  27    -4.4643301823812e-06
  28    0.0043382451492127
  29      0.25512277050505
  30      0.32805029695899
  31    -1.7672848878027e-07
  32    -0.0042665573316477
  33     0.004266630295051
  34    -0.053504852350615
  35     0.053505145082969
  36    4.2934143815399e-07
  37    9.9707573587508e-08
  38    -4.91368260872e-07
 Sym= A
 Ene=   -0.3055495853
 Spin= Alpha
 Occup=    1.83162
   1    4.4102558881497e-08
   2    -2.0075617815584e-07
   3    0.00013396136746517
   4    0.0078825119576486
   5     0.010135610234009
   6    1.9015885057895e-09
   7    -1.0679887024717e-07
   8    0.00012609233436243
   9    0.0074189490093533
  10    0.0095398399004752
  11    -2.8408119170764e-07
  12    1.1052534441733e-06
  13    -0.0044467551485418
  14     -0.26157789851804
  15     -0.33635206742437
  16    7.4959833137339e-08
  17    -3.8207892078923e-07
  18    -0.0060145937613877
  19     -0.35379119708279
  20     -0.45492476645541
  21    -9.4482741491642e-07
  22    4.0395593605078e-06
  23    0.0039401194427354
  24      0.23167781557017
  25      0.29790460522711
  26    1.2192702623331e-06