[Molden Format]
[Title]
 Generated by Molden2AIM, Version 5.1.2 (07/17/2025)           Time: Thu Feb 12 11:36:02 2026

[Atoms] AU
  C      1    6       -3.6728527984        1.4512529719       -1.0800729665
  C      2    6       -0.8542884891        0.9983612089       -0.7651123133
  C      3    6       -0.2956287549       -1.2268857891        0.9580533506
  O      4    8       -1.9642758202       -2.4941739228        1.9656742175
  C      5    6        2.3840217870       -1.9307709760        1.4700368496
  C      6    6        4.4090900966       -0.7483504426        0.5236809036
  H      7    1       -4.0073154252        3.0643798836       -2.3301645924
  H      8    1       -4.6050169012       -0.2051486681       -1.8984188647
  H      9    1       -4.5701136596        1.8482466361        0.7419253738
  H     10    1        0.0129635212        2.6959021866        0.0407424952
  H     11    1       -0.0222420765        0.6244599979       -2.6228264773
  H     12    1        2.6071417505       -3.5432175863        2.7210544413
  H     13    1        4.2835744874        0.8667984761       -0.7307381951
  H     14    1        6.2949422826       -1.4008539761        1.0062035723
[GTO]
    1    0
 S    3  1.0
    0.7161683700D+02    0.1543289700D+00
    0.1304509600D+02    0.5353281400D+00
    0.3530512200D+01    0.4446345400D+00
 S    3  1.0
    0.2941249400D+01   -0.9996723008D-01
    0.6834831000D+00    0.3995128303D+00
    0.2222899000D+00    0.7001154705D+00
 P    3  1.0
    0.2941249400D+01    0.1559162721D+00
    0.6834831000D+00    0.6076837282D+00
    0.2222899000D+00    0.3919573953D+00

    2    0
 S    3  1.0
    0.7161683700D+02    0.1543289700D+00
    0.1304509600D+02    0.5353281400D+00
    0.3530512200D+01    0.4446345400D+00
 S    3  1.0
    0.2941249400D+01   -0.9996723008D-01
    0.6834831000D+00    0.3995128303D+00
    0.2222899000D+00    0.7001154705D+00
 P    3  1.0
    0.2941249400D+01    0.1559162721D+00
    0.6834831000D+00    0.6076837282D+00
    0.2222899000D+00    0.3919573953D+00

    3    0
 S    3  1.0
    0.7161683700D+02    0.1543289700D+00
    0.1304509600D+02    0.5353281400D+00
    0.3530512200D+01    0.4446345400D+00
 S    3  1.0
    0.2941249400D+01   -0.9996723008D-01
    0.6834831000D+00    0.3995128303D+00
    0.2222899000D+00    0.7001154705D+00
 P    3  1.0
    0.2941249400D+01    0.1559162721D+00
    0.6834831000D+00    0.6076837282D+00
    0.2222899000D+00    0.3919573953D+00

    4    0
 S    3  1.0
    0.1307093200D+03    0.1543289687D+00
    0.2380886100D+02    0.5353281356D+00
    0.6443608300D+01    0.4446345363D+00
 S    3  1.0
    0.5033151300D+01   -0.9996722866D-01
    0.1169596100D+01    0.3995128246D+00
    0.3803890000D+00    0.7001154606D+00
 P    3  1.0
    0.5033151300D+01    0.1559162685D+00
    0.1169596100D+01    0.6076837141D+00
    0.3803890000D+00    0.3919573862D+00

    5    0
 S    3  1.0
    0.7161683700D+02    0.1543289700D+00
    0.1304509600D+02    0.5353281400D+00
    0.3530512200D+01    0.4446345400D+00
 S    3  1.0
    0.2941249400D+01   -0.9996723008D-01
    0.6834831000D+00    0.3995128303D+00
    0.2222899000D+00    0.7001154705D+00
 P    3  1.0
    0.2941249400D+01    0.1559162721D+00
    0.6834831000D+00    0.6076837282D+00
    0.2222899000D+00    0.3919573953D+00

    6    0
 S    3  1.0
    0.7161683700D+02    0.1543289700D+00
    0.1304509600D+02    0.5353281400D+00
    0.3530512200D+01    0.4446345400D+00
 S    3  1.0
    0.2941249400D+01   -0.9996723008D-01
    0.6834831000D+00    0.3995128303D+00
    0.2222899000D+00    0.7001154705D+00
 P    3  1.0
    0.2941249400D+01    0.1559162721D+00
    0.6834831000D+00    0.6076837282D+00
    0.2222899000D+00    0.3919573953D+00

    7    0
 S    3  1.0
    0.3425250910D+01    0.1543289707D+00
    0.6239137300D+00    0.5353281424D+00
    0.1688554000D+00    0.4446345420D+00

    8    0
 S    3  1.0
    0.3425250910D+01    0.1543289707D+00
    0.6239137300D+00    0.5353281424D+00
    0.1688554000D+00    0.4446345420D+00

    9    0
 S    3  1.0
    0.3425250910D+01    0.1543289707D+00
    0.6239137300D+00    0.5353281424D+00
    0.1688554000D+00    0.4446345420D+00

   10    0
 S    3  1.0
    0.3425250910D+01    0.1543289707D+00
    0.6239137300D+00    0.5353281424D+00
    0.1688554000D+00    0.4446345420D+00

   11    0
 S    3  1.0
    0.3425250910D+01    0.1543289707D+00
    0.6239137300D+00    0.5353281424D+00
    0.1688554000D+00    0.4446345420D+00

   12    0
 S    3  1.0
    0.3425250910D+01    0.1543289707D+00
    0.6239137300D+00    0.5353281424D+00
    0.1688554000D+00    0.4446345420D+00

   13    0
 S    3  1.0
    0.3425250910D+01    0.1543289707D+00
    0.6239137300D+00    0.5353281424D+00
    0.1688554000D+00    0.4446345420D+00

   14    0
 S    3  1.0
    0.3425250910D+01    0.1543289707D+00
    0.6239137300D+00    0.5353281424D+00
    0.1688554000D+00    0.4446345420D+00

[MO]
 Sym= A
 Ene=        -20.28543100
 Spin= Alpha
 Occup=        2.00000000
    1        0.0000060305
    2       -0.0000435127
    3       -0.0001286216
    4        0.0000492242
    5       -0.0000365836
    6       -0.0000376495
    7        0.0002849133
    8       -0.0004161946
    9       -0.0002632696
   10        0.0002102464
   11        0.0005239494
   12       -0.0070807692
   13        0.0045050368
   14        0.0035408710
   15       -0.0028132839
   16        0.9942791338
   17        0.0258799583
   18        0.0039584414
   19        0.0030055758
   20       -0.0023897628
   21       -0.0000302799
   22        0.0004197748
   23       -0.0003573230
   24       -0.0002826296
   25        0.0002245321
   26        0.0000078349
   27        0.0000266492
   28        0.0000413838
   29       -0.0000479124
   30        0.0000367202
   31       -0.0000063300
   32       -0.0000910759
   33       -0.0000910716
   34        0.0000117275
   35        0.0000117239
   36       -0.0002455808
   37       -0.0000165092
   38       -0.0000140719
 Sym= A
 Ene=        -11.08000121
 Spin= Alpha
 Occup=        2.00000000
    1       -0.0007791751
    2        0.0004285215
    3        0.0002793866
    4        0.0000332259
    5       -0.0000295338
    6       -0.0042845410
    7       -0.0066258313
    8       -0.0009116448
    9        0.0051057697
   10       -0.0039586682
   11        0.9932328417
   12        0.0309801136
   13       -0.0005207742
   14       -0.0023212980
   15        0.0018121794
   16        0.0001707146
   17       -0.0058784901
   18       -0.0014644824
   19       -0.0006813431
   20        0.0005492578
   21       -0.0013838551
   22       -0.0059871110
   23        0.0043938785
   24       -0.0009752363
   25        0.0007003281
   26       -0.0002321812
   27        0.0002591067
   28       -0.0002260804
   29        0.0000780587
   30       -0.0000577246
   31       -0.0005140192
   32       -0.0000311680
   33       -0.0000311619
   34        0.0003578738
   35        0.0003578752
   36       -0.0000649939
   37       -0.0000426008
   38       -0.0001309474
 Sym= A
 Ene=        -11.04786348
 Spin= Alpha
 Occup=        2.00000000
    1       -0.0127255653
    2       -0.0063292138
    3       -0.0042007767
    4        0.0006762861
    5       -0.0004704269
    6        0.9918409953
    7        0.0376509992
    8       -0.0000018187
    9        0.0002346136
   10       -0.0001824280
   11        0.0056521303
   12       -0.0058780887
   13        0.0011577348
   14       -0.0035668591
   15        0.0027586151
   16       -0.0000197931
   17        0.0002208146
   18       -0.0001179589
   19        0.0002259997
   20       -0.0001741803
   21       -0.0007707082
   22        0.0002754764
   23       -0.0001427246
   24        0.0000973023
   25       -0.0000737958
   26       -0.0004175043
   27       -0.0000499871
   28        0.0001623855
   29       -0.0000006943
   30       -0.0000016147
   31        0.0001265225
   32        0.0001502780
   33        0.0001502723
   34       -0.0069452845
   35       -0.0069452455
   36       -0.0001125106
   37       -0.0000916279
   38       -0.0000223543
 Sym= A
 Ene=        -11.03774809
 Spin= Alpha
 Occup=        2.00000000
    1        0.9918687708
    2        0.0376490867
    3       -0.0002206094
    4        0.0000627405
    5       -0.0000459033
    6        0.0136932894
    7       -0.0052797799
    8        0.0042291460
    9       -0.0007168977
   10        0.0005016383
   11        0.0008504709
   12        0.0000634867
   13        0.0001580952
   14        0.0000326609
   15       -0.0000274893
   16        0.0000071741
   17        0.0000251677
   18        0.0000791418
   19       -0.0000510283
   20        0.0000386398
   21       -0.0005452290
   22       -0.0001147124
   23        0.0000681805
   24       -0.0000540310
   25        0.0000411167
   26       -0.0001110614
   27        0.0000104407
   28        0.0000205351
   29       -0.0000049878
   30        0.0000036067
   31       -0.0069259624
   32       -0.0069155607
   33       -0.0069154755
   34       -0.0000542377
   35       -0.0000542424
   36       -0.0000030764
   37       -0.0000372297
   38       -0.0000107473
 Sym= A
 Ene=        -11.02637946
 Spin= Alpha
 Occup=        2.00000000
    1        0.0005606136
    2       -0.0000758822
    3       -0.0000614104
    4        0.0000322517
    5       -0.0000242706
    6        0.0007753280
    7        0.0002127716
    8       -0.0000576668
    9        0.0001253580
   10       -0.0000967304
   11        0.0026213749
   12       -0.0065689129
   13       -0.0044389911
   14        0.0009225935
   15       -0.0006587976
   16       -0.0000356673
   17        0.0003568588
   18        0.0003442443
   19        0.0000191315
   20       -0.0000194115
   21        0.9921601540
   22        0.0357304429
   23        0.0018211563
   24        0.0004717387
   25       -0.0003910964
   26        0.0183238588
   27       -0.0073284058
   28        0.0037016440
   29        0.0021792334
   30       -0.0017437586
   31       -0.0000301202
   32        0.0000076978
   33        0.0000076980
   34       -0.0000457114
   35       -0.0000457094
   36       -0.0067911041
   37        0.0000557970
   38       -0.0001054182
 Sym= A
 Ene=        -11.01514506
 Spin= Alpha
 Occup=        2.00000000
    1        0.0000998489
    2       -0.0000285780
    3       -0.0000215731
    4       -0.0000011800
    5        0.0000012026
    6        0.0004353591
    7       -0.0000129852
    8       -0.0001101239
    9        0.0000714556
   10       -0.0000541156
   11        0.0001403817
   12        0.0004501050
   13        0.0002196348
   14       -0.0001099280
   15        0.0000825863
   16        0.0000135777
   17       -0.0001114374
   18       -0.0000923940
   19       -0.0000036665
   20        0.0000040711
   21       -0.0176704379
   22       -0.0086973337
   23       -0.0039038947
   24       -0.0022233671
   25        0.0017807576
   26        0.9920361480
   27        0.0364967737
   28       -0.0014192075
   29       -0.0009506031
   30        0.0007581543
   31       -0.0000014092
   32        0.0000015109
   33        0.0000015110
   34       -0.0000169350
   35       -0.0000169404
   36        0.0002289569
   37       -0.0067962475
   38       -0.0068313925
 Sym= A
 Ene=         -1.30319833
 Spin= Alpha
 Occup=        2.00000000
    1       -0.0056737082
    2        0.0147412211
    3        0.0057970303
    4       -0.0043286792
    5        0.0032897393
    6       -0.0027280183
    7        0.0044687973
    8       -0.0072567769
    9        0.0179140038
   10       -0.0138357545
   11       -0.0883940982
   12        0.1722779116
   13       -0.1457988385
   14       -0.1161562763
   15        0.0922615777
   16       -0.2286745870
   17        0.8125240948
   18        0.1239667219
   19        0.0932556964
   20       -0.0741628364
   21       -0.0031449492
   22        0.0028068324
   23        0.0100508434
   24       -0.0083266404
   25        0.0063423461
   26       -0.0017329786
   27        0.0064003233
   28       -0.0040194453
   29       -0.0024148415
   30        0.0019310989
   31       -0.0027287228
   32        0.0053563777
   33        0.0053562798
   34        0.0081566989
   35        0.0081567876
   36        0.0097078887
   37        0.0033201672
   38       -0.0037229839
 Sym= A
 Ene=         -0.97280838
 Spin= Alpha
 Occup=        2.00000000
    1       -0.1725327309
    2        0.4788025730
    3        0.0638220211
    4       -0.0051924664
    5        0.0031938785
    6       -0.1349348699
    7        0.3645959115
    8       -0.0871766190
    9        0.0936166213
   10       -0.0716525944
   11        0.0000427204
   12       -0.0254306210
   13       -0.0005124558
   14        0.0025368205
   15       -0.0019659245
   16        0.0140781275
   17       -0.0527675207
   18       -0.0113447550
   19        0.0132914172
   20       -0.0101863360
   21       -0.0443827951
   22        0.1155353158
   23        0.0614597297
   24        0.0126280455
   25       -0.0106345867
   26       -0.0613236641
   27        0.1649346106
   28       -0.0320358372
   29       -0.0162655047
   30        0.0130738072
   31        0.1134490762
   32        0.1176265519
   33        0.1176247151
   34        0.1158561348
   35        0.1158554730
   36        0.0300197063
   37        0.0460185609
   38        0.0370615781
 Sym= A
 Ene=         -0.95960339
 Spin= Alpha
 Occup=        2.00000000
    1        0.0626993276
    2       -0.1763143804
    3       -0.0205834183
    4        0.0015919013
    5       -0.0009656904
    6        0.0375042383
    7       -0.0986670037
    8        0.0408024260
    9       -0.0257871388
   10        0.0195149582
   11        0.0022217020
   12       -0.0146769433
   13       -0.0117227278
   14       -0.0004049789
   15        0.0004704090
   16       -0.0009676800
   17        0.0047646481
   18        0.0200963405
   19       -0.0097130719
   20        0.0072897099
   21       -0.1359763634
   22        0.3437483284
   23        0.2126136993
   24        0.0299046944
   25       -0.0260710575
   26       -0.1889000884
   27        0.5074468730
   28       -0.0854193889
   29       -0.0619627825
   30        0.0493196793
   31       -0.0425436838
   32       -0.0442854099
   33       -0.0442846850
   34       -0.0241177685
   35       -0.0241173871
   36        0.1129743172
   37        0.1310058847
   38        0.1255722375
 Sym= A
 Ene=         -0.78047034
 Spin= Alpha
 Occup=        2.00000000
    1       -0.1208635616
    2        0.3692525877
    3       -0.1853993283
    4        0.0068048400
    5       -0.0028440733
    6        0.1473598339
    7       -0.4427077361
    8       -0.1261401049
    9       -0.1410789844
   10        0.1113814608
   11        0.0051988348
   12        0.0144876780
   13       -0.0051819916
   14        0.0016499572
   15       -0.0012170072
   16        0.0023506984
   17       -0.0130891613
   18       -0.0039695480
   19       -0.0056704458
   20        0.0044597544
   21       -0.0160055295
   22        0.0464589130
   23        0.0169239392
   24       -0.0137452409
   25        0.0104671806
   26       -0.0061006737
   27        0.0150701182
   28        0.0087804155
   29       -0.0266011598
   30        0.0205723881
   31        0.1528428028
   32        0.1633777869
   33        0.1633736523
   34       -0.2382992172
   35       -0.2382965790
   36        0.0314888671
   37       -0.0249442051
   38        0.0200755618
 Sym= A
 Ene=         -0.71004043
 Spin= Alpha
 Occup=        2.00000000
    1       -0.0076711336
    2        0.0258909763
    3       -0.0232873347
    4       -0.0003240903
    5        0.0005594271
    6        0.0166472711
    7       -0.0581734292
    8        0.0063308032
    9       -0.0026271390
   10        0.0019590975
   11        0.0078363343
   12       -0.0055200213
   13        0.0256495449
   14        0.0211407170
   15       -0.0167800845
   16       -0.0219918723
   17        0.1001157584
   18       -0.0904553174
   19        0.0058151330
   20       -0.0033279732
   21        0.1282140561
   22       -0.3789319180
   23       -0.1121366517
   24        0.1946818349
   25       -0.1499161783
   26       -0.1008990584
   27        0.3185318111
   28        0.1521853992
   29        0.1829714682
   30       -0.1443059041
   31        0.0095750877
   32        0.0174828297
   33        0.0174821630
   34       -0.0172090202
   35       -0.0172085786
   36       -0.3352010678
   37        0.2630942735
   38        0.1730294327
 Sym= A
 Ene=         -0.58924000
 Spin= Alpha
 Occup=        2.00000000
    1        0.0034345081
    2       -0.0095262655
    3        0.0750832678
    4       -0.0285942521
    5        0.0212568177
    6       -0.0047486828
    7        0.0163754323
    8       -0.0912196287
    9        0.0110032842
   10       -0.0073378876
   11       -0.0768758133
   12        0.2454143591
   13       -0.1546601263
   14       -0.1473444358
   15        0.1166355185
   16        0.0933175387
   17       -0.4688461224
   18        0.3861599780
   19        0.2375237255
   20       -0.1898239566
   21        0.0358324843
   22       -0.1085913778
   23       -0.1098510845
   24       -0.1764890690
   25        0.1387068780
   26       -0.0138988806
   27        0.0609060020
   28        0.3301617702
   29        0.0146633937
   30       -0.0157694151
   31       -0.0477598301
   32       -0.0215386335
   33       -0.0215263180
   34       -0.0170403905
   35       -0.0170549840
   36        0.1080144979
   37        0.0271129973
   38        0.2603876589
 Sym= A
 Ene=         -0.58612377
 Spin= Alpha
 Occup=        2.00000000
    1       -0.0000005848
    2        0.0000023444
    3        0.0037717429
    4        0.2221002642
    5        0.2855694604
    6        0.0000007606
    7       -0.0000024531
    8        0.0045377025
    9        0.2667633198
   10        0.3430207898
   11        0.0000026208
   12       -0.0000075793
   13        0.0004766938
   14        0.0276726164
   15        0.0355745172
   16       -0.0000032020
   17        0.0000159587
   18       -0.0000315191
   19       -0.0013878344
   20       -0.0017589959
   21       -0.0000004514
   22        0.0000011222
   23       -0.0001239192
   24       -0.0073956919
   25       -0.0095151564
   26        0.0000001366
   27       -0.0000007139
   28       -0.0000526899
   29       -0.0028980331
   30       -0.0037232313
   31        0.0000114059
   32       -0.2353374494
   33        0.2353352046
   34        0.2962350271
   35       -0.2962368917
   36       -0.0000013678
   37       -0.0000019390
   38       -0.0000020429
 Sym= A
 Ene=         -0.56271442
 Spin= Alpha
 Occup=        2.00000000
    1       -0.0003613097
    2        0.0030759389
    3       -0.0082035385
    4       -0.0547160209
    5        0.0426673525
    6        0.0165842916
    7       -0.0613252647
    8       -0.0316725077
    9        0.0113439812
   10       -0.0083955933
   11       -0.0611876993
   12        0.1776586399
   13       -0.1649188608
   14       -0.1026452242
   15        0.0820067749
   16        0.0685413212
   17       -0.3487151674
   18        0.2760697533
   19        0.2715790013
   20       -0.2148557458
   21       -0.0201401345
   22        0.0480014517
   23        0.0921813156
   24        0.1621297138
   25       -0.1273063943
   26       -0.0021461450
   27        0.0008309276
   28       -0.3920625703
   29        0.1184553605
   30       -0.0869375212
   31       -0.0625484479
   32        0.0276636492
   33        0.0276701655
   34       -0.0124422432
   35       -0.0124505693
   36       -0.1282671545
   37        0.1493164677
   38       -0.3635957289
 Sym= A
 Ene=         -0.53653877
 Spin= Alpha
 Occup=        2.00000000
    1       -0.0014137508
    2       -0.0021882494
    3       -0.1279949122
    4        0.3740293454
    5       -0.2891917608
    6        0.0202240577
    7       -0.0568494556
    8        0.2079145562
    9        0.0114269904
   10       -0.0116489203
   11       -0.0121090256
   12        0.0416334803
   13        0.0184507525
   14       -0.0368663993
   15        0.0284271436
   16        0.0046638118
   17       -0.0277263115
   18        0.2601230785
   19       -0.1334886704
   20        0.1003801627
   21        0.0055441178
   22       -0.0354157863
   23       -0.0221186165
   24       -0.0833917686
   25        0.0651458370
   26        0.0048681930
   27       -0.0094010250
   28       -0.0222214784
   29        0.1345413068
   30       -0.1043383462
   31        0.4418839339
   32       -0.1208879334
   33       -0.1208881149
   34        0.0480871751
   35        0.0481035125
   36        0.1013818318
   37        0.1624008551
   38       -0.0921990357
 Sym= A
 Ene=         -0.51242624
 Spin= Alpha
 Occup=        2.00000000
    1        0.0003506955
    2        0.0009965980
    3        0.1100013940
    4        0.2002264159
    5       -0.1571632196
    6        0.0062618498
    7       -0.0274612244
    8       -0.0648784169
    9        0.0351564248
   10       -0.0264942999
   11       -0.0254569093
   12        0.1004993342
   13       -0.0572087087
   14       -0.0201500975
   15        0.0164248236
   16        0.0142537493
   17       -0.0808464928
   18        0.0129438195
   19        0.1657274834
   20       -0.1290587233
   21        0.0084183683
   22       -0.0314333189
   23        0.1197272856
   24        0.2414442063
   25       -0.1893512884
   26       -0.0155550055
   27        0.0399133156
   28       -0.0164692647
   29       -0.3130386158
   30        0.2436669928
   31        0.2155281535
   32       -0.1326360524
   33       -0.1326267277
   34       -0.0294086345
   35       -0.0293954796
   36       -0.3043154768
   37       -0.3573519313
   38        0.1597581317
 Sym= A
 Ene=         -0.47302324
 Spin= Alpha
 Occup=        2.00000000
    1        0.0163096249
    2       -0.0670879643
    3       -0.4668419812
    4       -0.0951850126
    5        0.0800876437
    6        0.0114395221
    7       -0.0491951760
    8        0.4600922238
    9        0.0447370544
   10       -0.0407829725
   11       -0.0197126810
   12        0.0566059512
   13        0.0066934908
   14       -0.0487198613
   15        0.0378117254
   16        0.0122011410
   17       -0.0640558463
   18        0.1929436387
   19        0.0006222121
   20       -0.0030347012
   21        0.0146989241
   22       -0.0644532459
   23        0.0482399035
   24        0.0589584898
   25       -0.0464905130
   26        0.0015449703
   27       -0.0057533483
   28        0.0433616922
   29       -0.1385079995
   30        0.1071431458
   31       -0.0839549246
   32        0.2172914458
   33        0.2171509615
   34        0.1916959801
   35        0.1915763265
   36       -0.0969088675
   37       -0.1499170565
   38        0.1019563290
 Sym= A
 Ene=         -0.46601442
 Spin= Alpha
 Occup=        2.00000000
    1        0.0000033250
    2       -0.0000126361
    3        0.0045529380
    4        0.2732597453
    5        0.3514234364
    6        0.0000022294
    7       -0.0000096410
    8       -0.0036987841
    9       -0.2228646004
   10       -0.2865894992
   11       -0.0000033888
   12        0.0000090810
   13       -0.0004572749
   14       -0.0269777543
   15       -0.0346733660
   16        0.0000020678
   17       -0.0000107084
   18        0.0001190399
   19        0.0052665926
   20        0.0067655261
   21        0.0000025557
   22       -0.0000109670
   23        0.0000938298
   24        0.0051041392
   25        0.0065473763
   26        0.0000006775
   27       -0.0000023096
   28        0.0000398258
   29        0.0017726395
   30        0.0023259546
   31       -0.0000234125
   32       -0.3627397125
   33        0.3628346163
   34       -0.3073437983
   35        0.3074197377
   36       -0.0000139496
   37       -0.0000244657
   38        0.0000181243
 Sym= A
 Ene=         -0.43467125
 Spin= Alpha
 Occup=        2.00000000
    1        0.0152402055
    2       -0.0548905736
    3       -0.1328303734
    4        0.0911717076
    5       -0.0691510032
    6        0.0212141277
    7       -0.1030117045
    8        0.1520052062
    9        0.0524264477
   10       -0.0427748233
   11       -0.0026563785
   12        0.0082667865
   13       -0.1232269610
   14        0.0854964175
   15       -0.0648686704
   16        0.0034203860
   17       -0.0187016102
   18       -0.5981572613
   19        0.5198915626
   20       -0.3964288479
   21       -0.0158669853
   22        0.0900620273
   23       -0.0566252443
   24       -0.0924182735
   25        0.0726229286
   26        0.0129631141
   27       -0.0477172665
   28        0.0496554771
   29        0.0657248724
   30       -0.0517694539
   31        0.1150270936
   32        0.0048791147
   33        0.0048742174
   34        0.0599788697
   35        0.0599706651
   36        0.1298513785
   37        0.0629413881
   38       -0.0027674050
 Sym= A
 Ene=         -0.68779626
 Spin= Alpha
 Occup=        1.98164000
    1        0.0113407424
    2       -0.0405222657
    3       -0.0536030892
    4        0.0356220261
    5       -0.0269946307
    6       -0.0679513214
    7        0.1900902431
    8        0.0668168643
    9       -0.3611968976
   10        0.2800175373
   11       -0.1583497112
   12        0.5014758439
   13        0.0640891674
   14        0.2945283968
   15       -0.2298970102
   16        0.0154902976
   17       -0.0663352486
   18       -0.0130100823
   19       -0.0795803421
   20        0.0620638604
   21       -0.0202955121
   22        0.0404146780
   23       -0.0992379391
   24        0.0259587991
   25       -0.0188754471
   26        0.0109194861
   27       -0.0370435848
   28        0.0433429029
   29        0.0040548336
   30       -0.0037270694
   31        0.0701438488
   32       -0.0252601421
   33       -0.0252600245
   34       -0.0989069287
   35       -0.0989074416
   36       -0.0004542953
   37       -0.0180091892
   38        0.0281598248
 Sym= A
 Ene=         -0.55193082
 Spin= Alpha
 Occup=        1.97452000
    1        0.0108375225
    2       -0.0456176296
    3       -0.0572405198
    4        0.0191189230
    5       -0.0141122684
    6       -0.0425298382
    7        0.1504351102
    8        0.0572111591
    9       -0.1879106728
   10        0.1453802424
   11        0.0691605815
   12       -0.1999828942
   13       -0.4290455164
   14        0.1915977116
   15       -0.1433276233
   16       -0.0078301634
   17        0.0294176442
   18        0.1730390284
   19       -0.0703357027
   20        0.0524202149
   21        0.1055765319
   22       -0.3320334947
   23        0.4447520427
   24       -0.1412632991
   25        0.1039769623
   26       -0.0170754860
   27        0.0588474542
   28       -0.0651377376
   29       -0.0203515010
   30        0.0166875214
   31        0.0405182333
   32       -0.0137000133
   33       -0.0136997452
   34       -0.0158358872
   35       -0.0158350049
   36        0.1159149740
   37        0.0482949948
   38       -0.0747620711
 Sym= A
 Ene=         -0.38395883
 Spin= Alpha
 Occup=        1.81933000
    1       -0.0000001288
    2        0.0000004371
    3       -0.0001222299
    4       -0.0071757355
    5       -0.0092270933
    6        0.0000006967
    7       -0.0000026074
    8       -0.0004700983
    9       -0.0276549965
   10       -0.0355648500
   11        0.0000004920
   12       -0.0000020633
   13        0.0060505133
   14        0.3559646918
   15        0.4577198152
   16       -0.0000000304
   17        0.0000002358
   18        0.0040151619
   19        0.2367288347
   20        0.3043837023
   21       -0.0000017309
   22        0.0000070881
   23        0.0050211816
   24        0.2954060549
   25        0.3798499865
   26        0.0000007232
   27       -0.0000025662
   28        0.0021081147
   29        0.1239659151
   30        0.1594012769
   31        0.0000001254
   32       -0.0051613051
   33        0.0051621367
   34       -0.0763212938
   35        0.0763221008
   36        0.0000000448
   37        0.0000000482
   38       -0.0000004518
 Sym= A
 Ene=         -0.18162073
 Spin= Alpha
 Occup=        1.08437000
    1        0.0000002775
    2       -0.0000009196
    3        0.0000985725
    4        0.0057406673
    5        0.0073820054
    6       -0.0000010341
    7        0.0000037835
    8        0.0001203435
    9        0.0070850564
   10        0.0091146204
   11        0.0000000984
   12       -0.0000001721
   13       -0.0023860660
   14       -0.1402914637
   15       -0.1803957698
   16       -0.0000000827
   17        0.0000002296
   18       -0.0056560004
   19       -0.3333167081
   20       -0.4285806199
   21       -0.0000003678
   22        0.0000013966
   23        0.0039976991
   24        0.2348371731
   25        0.3019683383
   26        0.0000009582
   27       -0.0000046922
   28        0.0064806840
   29        0.3811532146
   30        0.4901069633
   31       -0.0000005016
   32       -0.0012609010
   33        0.0012595714
   34        0.0301161325
   35       -0.0301163456
   36        0.0000007381
   37        0.0000016933
   38        0.0000003017
 Sym= A
 Ene=          0.09491386
 Spin= Alpha
 Occup=        0.91569000
    1       -0.0000000768
    2        0.0000003195
    3       -0.0000001938
    4        0.0000014856
    5        0.0000018892
    6        0.0000004236
    7       -0.0000018040
    8        0.0000521103
    9        0.0030765867
   10        0.0039535731
   11       -0.0000004064
   12        0.0000018368
   13       -0.0034999945
   14       -0.2059585750
   15       -0.2648330934
   16        0.0000000455
   17       -0.0000001890
   18        0.0064453115
   19        0.3794938454
   20        0.4879656783
   21        0.0000002684
   22       -0.0000015120
   23       -0.0048140153