[Molden Format]
[Title]
[Atoms] AU
C      1     6 -0.36728527985510E+01  0.14512529719248E+01 -0.10800729665268E+01
C      2     6 -0.85428848915716E+00  0.99836120889822E+00 -0.76511231333632E+00
C      3     6 -0.29562875493562E+00 -0.12268857891486E+01  0.95805335066007E+00
O      4     8 -0.19642758202367E+01 -0.24941739228415E+01  0.19656742175689E+01
C      5     6  0.23840217870374E+01 -0.19307709760472E+01  0.14700368496035E+01
C      6     6  0.44090900967032E+01 -0.74835044261094E+00  0.52368090365482E+00
H      7     1 -0.40073154253476E+01  0.30643798836845E+01 -0.23301645924857E+01
H      8     1 -0.46050169013038E+01 -0.20514866808880E+00 -0.18984188647937E+01
H      9     1 -0.45701136597821E+01  0.18482466361850E+01  0.74192537378723E+00
H     10     1  0.12963521214896E-01  0.26959021866448E+01  0.40742495246817E-01
H     11     1 -0.22242076486783E-01  0.62445999788082E+00 -0.26228264774057E+01
H     12     1  0.26071417505713E+01 -0.35432175864021E+01  0.27210544413635E+01
H     13     1  0.42835744875059E+01  0.86679847610215E+00 -0.73073819512948E+00
H     14     1  0.62949422827681E+01 -0.14008539761811E+01  0.10062035723154E+01
[GTO]
           1 0
 s           4   1.0000000000000000     
   51.049363095579913      -0.16312063210127389     
   8.7911227406887544      -0.19911024581000730     
  0.70640422258929825       0.31882047753655751     
  0.26922813413411617       0.12706504184240380     
 p           4   1.0000000000000000     
   5.8263656140800002       0.73716451545209605     
   1.5106896018720002       0.68216371614850257     
  0.53256483288000001       0.35783053929253711     
  0.21202323690600003        5.3983030275847881E-002

           2 0
 s           4   1.0000000000000000     
   51.049363095579913      -0.16312063210127389     
   8.7911227406887544      -0.19911024581000730     
  0.70640422258929825       0.31882047753655751     
  0.26922813413411617       0.12706504184240380     
 p           4   1.0000000000000000     
   5.8263656140800002       0.73716451545209605     
   1.5106896018720002       0.68216371614850257     
  0.53256483288000001       0.35783053929253711     
  0.21202323690600003        5.3983030275847881E-002

           3 0
 s           4   1.0000000000000000     
   51.049363095579913      -0.16312063210127389     
   8.7911227406887544      -0.19911024581000730     
  0.70640422258929825       0.31882047753655751     
  0.26922813413411617       0.12706504184240380     
 p           4   1.0000000000000000     
   5.8263656140800002       0.73716451545209605     
   1.5106896018720002       0.68216371614850257     
  0.53256483288000001       0.35783053929253711     
  0.21202323690600003        5.3983030275847881E-002

           4 0
 s           4   1.0000000000000000     
   69.137961906196551      -0.20478756370077797     
   11.906129132707308      -0.24997023136827334     
  0.95670827744340703       0.40025880240639616     
  0.36462520496073686       0.15952206667693555     
 p           4   1.0000000000000000     
   8.2124193257781641        1.1321556799186829     
   2.1293576997098116        1.0476840782254817     
  0.75066448202360914       0.54956508217158984     
  0.29885246543283073        8.2908486592766617E-002

           5 0
 s           4   1.0000000000000000     
   51.049363095579913      -0.16312063210127389     
   8.7911227406887544      -0.19911024581000730     
  0.70640422258929825       0.31882047753655751     
  0.26922813413411617       0.12706504184240380     
 p           4   1.0000000000000000     
   5.8263656140800002       0.73716451545209605     
   1.5106896018720002       0.68216371614850257     
  0.53256483288000001       0.35783053929253711     
  0.21202323690600003        5.3983030275847881E-002

           6 0
 s           4   1.0000000000000000     
   51.049363095579913      -0.16312063210127389     
   8.7911227406887544      -0.19911024581000730     
  0.70640422258929825       0.31882047753655751     
  0.26922813413411617       0.12706504184240380     
 p           4   1.0000000000000000     
   5.8263656140800002       0.73716451545209605     
   1.5106896018720002       0.68216371614850257     
  0.53256483288000001       0.35783053929253711     
  0.21202323690600003        5.3983030275847881E-002

           7 0
 s           3   1.0000000000000000     
   3.3702276975336001       0.27359110588908298     
  0.61389118221497996       0.26460540653860526     
  0.16614291148415999        8.2465947534082318E-002

           8 0
 s           3   1.0000000000000000     
   3.3702276975336001       0.27359110588908298     
  0.61389118221497996       0.26460540653860526     
  0.16614291148415999        8.2465947534082318E-002

           9 0
 s           3   1.0000000000000000     
   3.3702276975336001       0.27359110588908298     
  0.61389118221497996       0.26460540653860526     
  0.16614291148415999        8.2465947534082318E-002

          10 0
 s           3   1.0000000000000000     
   3.3702276975336001       0.27359110588908298     
  0.61389118221497996       0.26460540653860526     
  0.16614291148415999        8.2465947534082318E-002

          11 0
 s           3   1.0000000000000000     
   3.3702276975336001       0.27359110588908298     
  0.61389118221497996       0.26460540653860526     
  0.16614291148415999        8.2465947534082318E-002

          12 0
 s           3   1.0000000000000000     
   3.3702276975336001       0.27359110588908298     
  0.61389118221497996       0.26460540653860526     
  0.16614291148415999        8.2465947534082318E-002

          13 0
 s           3   1.0000000000000000     
   3.3702276975336001       0.27359110588908298     
  0.61389118221497996       0.26460540653860526     
  0.16614291148415999        8.2465947534082318E-002

          14 0
 s           3   1.0000000000000000     
   3.3702276975336001       0.27359110588908298     
  0.61389118221497996       0.26460540653860526     
  0.16614291148415999        8.2465947534082318E-002

[MO]
Sym=     1a
Ene=  -0.70798417874024089     
Spin= Alpha
Occup=     2.00000000
           1   1.6821557092869730E-002
           2   1.2705388705209486E-002
           3  -1.0348792504436386E-002
           4   7.8802432454754198E-003
           5   5.8848855172384057E-002
           6  -7.5152710871314796E-003
           7  -4.4735161284439842E-002
           8   3.4889437635383824E-002
           9  0.34147074462829891     
          10 -0.15280982557890804     
          11 -0.11140216491012586     
          12   8.8656872116214203E-002
          13  0.66553569009693492     
          14  0.13848674198371919     
          15  0.11132542893704089     
          16  -8.8407919246438302E-002
          17   4.8781773144118995E-002
          18  -5.2208209684512306E-002
          19   2.8031270541019411E-003
          20  -1.4898219596988988E-003
          21   7.6468166089148999E-004
          22  -6.1598285957267032E-003
          23  -1.1724777247521972E-003
          24   9.9328317696790081E-004
          25   5.3727617188572131E-004
          26   2.4390975838647199E-003
          27   2.4390117278522824E-003
          28   6.9553025627820831E-003
          29   6.9553084922124014E-003
          30   6.0283481294892572E-003
          31   6.7837243912200157E-004
          32   3.2502607855848279E-005
Sym=     2a
Ene=  -0.64645276137658847     
Spin= Alpha
Occup=     2.00000000
           1  0.25068651484978111     
           2  0.11949750563158507     
           3  -2.0618454336435135E-002
           4   1.4455423815022210E-002
           5  0.47532466336531198     
           6  -3.1250487483392639E-002
           7  -3.7565208533660785E-002
           8   2.9626898696424969E-002
           9  0.22505578261537637     
          10   3.4405466392683312E-002
          11  0.15567562365693777     
          12 -0.12152234326681492     
          13 -0.26049782833577745     
          14   3.3604458994923210E-002
          15   9.4203627689696826E-002
          16  -7.3705567693265972E-002
          17  0.10487484956146606     
          18  -2.8380307906872706E-002
          19   4.3375734059396431E-002
          20  -3.3357986432530982E-002
          21   5.6620980261836519E-002
          22  -3.5109987719433598E-002
          23  -4.0174754186013710E-003
          24   3.5888041801191736E-003
          25   6.3484217279116212E-002
          26   6.1737931234814004E-002
          27   6.1737279492554184E-002
          28  0.14574616795386114     
          29  0.14574562176334108     
          30   1.2097828162379764E-002
          31   2.1627772043217766E-002
          32   6.5344296816690914E-003
Sym=     3a
Ene=  -0.62713698590631839     
Spin= Alpha
Occup=     2.00000000
           1  0.23319276438956890     
           2   4.9704499170207535E-002
           3  -2.4214407576975071E-003
           4   1.2262451273333474E-003
           5  0.11236363427626359     
           6 -0.13147625798316406     
           7   6.2585519274389850E-002
           8  -4.6934231661866027E-002
           9 -0.23367010368745075     
          10 -0.21818169417254663     
          11   4.0333947096080257E-002
          12  -2.8482929820530651E-002
          13  0.20783746143576454     
          14 -0.17761852873629114     
          15  -8.5775403684585916E-003
          16   9.0188374159884798E-003
          17 -0.42932152917240091     
          18   3.0745325261836737E-002
          19  -5.9195204493073625E-002
          20   4.5630341264551760E-002
          21 -0.23752290295651005     
          22  0.10831673895619043     
          23   4.6228690140706352E-002
          24  -3.7384793803695887E-002
          25   7.6620403485699401E-002
          26   6.9879576125270196E-002
          27   6.9878833961321593E-002
          28   2.7026998127232315E-002
          29   2.7026510322890173E-002
          30 -0.11071835976565519     
          31  -5.5681475151726473E-002
          32  -4.7238620453961912E-002
Sym=     4a
Ene=  -0.59903237627003736     
Spin= Alpha
Occup=     2.00000000
           1  0.34646617159464493     
           2  -3.4989434869792571E-002
           3   3.8691124674325290E-002
           4  -2.9627551755180750E-002
           5  -9.0250494092170702E-002
           6 -0.14866695563021445     
           7  0.11440110109606741     
           8  -8.7004029958360790E-002
           9 -0.21017986534761190     
          10   4.4302743053283529E-002
          11  -9.6679396348973157E-002
          12   7.4600182603582199E-002
          13  0.23079216831581748     
          14 -0.10103696036627269     
          15 -0.14334696768469807     
          16  0.11281483192950480     
          17  0.24213785222491874     
          18  0.16052311773635472     
          19   8.8666798827191310E-003
          20  -9.0191550903485039E-003
          21  0.30133272253462595     
          22  -4.9473762631428379E-002
          23  -5.6298879371730975E-002
          24   4.4438343924133761E-002
          25  0.16370783066869099     
          26  0.12752350756242364     
          27  0.12752218383361424     
          28  -3.2183520759053806E-002
          29  -3.2183287392586225E-002
          30   9.2776326463525530E-002
          31   7.2095720345427342E-002
          32  0.10137015042547833     
Sym=     5a
Ene=  -0.58325905938298273     
Spin= Alpha
Occup=     2.00000000
           1  0.27249830702809524     
           2 -0.10632589450393178     
           3   1.6333839219688465E-002
           4  -1.1297961370964626E-002
           5 -0.20616968916956147     
           6 -0.13108044435773256     
           7  -3.3068551892573329E-002
           8   2.7448968639300051E-002
           9  0.17521913505142625     
          10   9.1637306248935735E-002
          11 -0.12235378364034386     
          12   9.3941785894966517E-002
          13 -0.33640340712367045     
          14  0.31274193313926812     
          15   8.9745243135758962E-002
          16  -7.3929032955094176E-002
          17   4.4322672147000371E-002
          18 -0.19689356858803006     
          19  -6.3962832212723447E-002
          20   5.2346890287341290E-002
          21 -0.26535032264404318     
          22  -3.5678657483518279E-003
          23  -1.5635061542398768E-003
          24   1.2623201394646522E-003
          25  0.13316361454549847     
          26  0.12751777452088073     
          27  0.12751606115933722     
          28 -0.13015628232968623     
          29 -0.13015512503356061     
          30   4.8162365533903816E-002
          31 -0.11446983095786234     
          32 -0.10408534255532584     
Sym=     6a
Ene=  -0.56194195614421039     
Spin= Alpha
Occup=     2.00000000
           1  -4.1260392556675143E-002
           2   8.8206814689816712E-002
           3   9.7239892991053692E-002
           4  -7.6786085222245920E-002
           5  0.15848361891985766     
           6  0.10182495427121392     
           7  0.21382991785167757     
           8 -0.16763585457444355     
           9  -9.9809663398946091E-002
          10  0.23861874060068131     
          11 -0.12549599968368361     
          12   9.4445271038696418E-002
          13  0.19895068958425333     
          14   5.1827667183233089E-002
          15 -0.31094070846098243     
          16  0.24113366459513269     
          17  0.11659172773091803     
          18 -0.15638678243644860     
          19  -7.6887265212717021E-002
          20   6.1863158884512659E-002
          21 -0.26090794338682283     
          22  -5.3603204600924902E-002
          23  -1.2695840807792128E-002
          24   1.0581839159991172E-002
          25   5.0525854572649916E-002
          26  -7.3321445200365834E-002
          27  -7.3317896714170466E-002
          28  0.17396735717732131     
          29  0.17396286524196808     
          30   9.8941255892631363E-002
          31 -0.10426895773246028     
          32 -0.13541211274042358     
Sym=     7a
Ene=  -0.54465313283634698     
Spin= Alpha
Occup=     2.00000000
           1  -5.7047120589778719E-007
           2  -2.0527236302663211E-003
           3 -0.12083040159105239     
           4 -0.15536924553636455     
           5   1.2486705113773901E-006
           6  -3.8135486954828986E-003
           7 -0.22442127220124394     
           8 -0.28857497684164668     
           9  -5.6810818822243981E-007
          10  -4.1120306826611195E-003
          11 -0.24201339311532757     
          12 -0.31119545010816219     
          13   2.8297086941513734E-006
          14  -4.8041979567536005E-003
          15 -0.28248722303095186     
          16 -0.36323148616157308     
          17   7.6689479228649627E-007
          18  -1.2014657776904232E-003
          19  -7.0605129995547522E-002
          20  -9.0786817271209394E-002
          21  -2.9477816859881591E-006
          22  -4.0384308188257784E-004
          23  -2.3659192616691097E-002
          24  -3.0421518283071075E-002
          25  -1.1463432686798972E-006
          26  0.11139134690201219     
          27 -0.11139309490614070     
          28 -0.21204062972852961     
          29  0.21204344050961291     
          30   1.2789278543351427E-006
          31  -1.4301405535993354E-006
          32  -2.2521334938996052E-006
Sym=     8a
Ene=  -0.52687580020723535     
Spin= Alpha
Occup=     2.00000000
           1  -6.2165535561438980E-003
           2   3.7269136921724844E-002
           3  0.14380705710628447     
           4 -0.11232892360158279     
           5  -1.6761017603653307E-002
           6   3.9160554751485728E-002
           7  0.18559634157027829     
           8 -0.14485539381956294     
           9   1.1106330859731629E-002
          10  -3.1172431293008385E-002
          11 -0.19214921166048590     
          12  0.14984017655683102     
          13 -0.19169246448137386     
          14  0.42609024809460522     
          15   4.6151898660666497E-002
          16  -4.1531880120835855E-002
          17 -0.24349803207844514     
          18  -6.3706819942407483E-002
          19   5.2101220757274920E-002
          20  -3.9677158534443584E-002
          21  0.21250347184870955     
          22  0.17150738208371638     
          23  0.15387641142674985     
          24 -0.12193680886946155     
          25  0.12711002651972719     
          26  -6.8072249870060136E-002
          27  -6.8069453535998345E-002
          28   9.0432266206664697E-002
          29   9.0432713134164400E-002
          30 -0.15984552793200588     
          31  0.23950448332640858     
          32  0.16364945009126350     
Sym=     9a
Ene=  -0.52410243253249522     
Spin= Alpha
Occup=     2.00000000
           1  -7.1219108297541911E-002
           2  0.24363222489870959     
           3  -2.0291029402002569E-002
           4   1.2562786691083782E-002
           5   9.4915160121988390E-002
           6 -0.19186302992066109     
           7  0.10247465074054424     
           8  -7.7155559089320744E-002
           9 -0.10144368862691509     
          10 -0.22419284889015165     
          11  -9.5035766212182265E-002
          12   7.6868705770554005E-002
          13 -0.19777134957073902     
          14  0.17595112852225797     
          15  0.19113576360243303     
          16 -0.15097658748631854     
          17   7.9820653382424681E-002
          18  0.18657664426625775     
          19 -0.23571480602720338     
          20  0.18084440159252277     
          21  -1.3353764894754785E-002
          22  0.11245670100777010     
          23 -0.17177708938913197     
          24  0.13210209924851751     
          25  -8.6760254196579206E-002
          26 -0.10781411939638766     
          27 -0.10781053613674810     
          28   1.6611235655938750E-002
          29   1.6608380832844920E-002
          30  0.25577564452623586     
          31 -0.16146935455172007     
          32  0.12198532567951784     
Sym=    10a
Ene=  -0.50682996385671752     
Spin= Alpha
Occup=     2.00000000
           1   1.4534620693371127E-007
           2  -3.3742224027285789E-003
           3 -0.19870753802124305     
           4 -0.25550648663304426     
           5   1.4718550151209843E-006
           6  -3.0387971988719816E-003
           7 -0.17869428713702842     
           8 -0.22977969758858266     
           9  -1.6024570912995153E-006
          10   3.0670403542110260E-003
          11  0.18044461452144028     
          12  0.23203063840424412     
          13  -1.3792269785320374E-006
          14   5.9293833465650248E-003
          15  0.34852365984729716     
          16  0.44815334020290898     
          17  -4.7104201392730574E-007
          18   1.1209157034045003E-003
          19   6.5931885585033240E-002
          20   8.4783981643204900E-002
          21   7.4544205345376568E-007
          22   3.8598551726776122E-004
          23   2.2490220229263284E-002
          24   2.8919159113665147E-002
          25  -2.2770308461788466E-006
          26  0.19529268467294417     
          27 -0.19529632141403575     
          28 -0.19880164221353505     
          29  0.19880434654602216     
          30   1.5596156103280442E-006
          31   7.0114329784276177E-007
          32   3.0696897698243702E-006
Sym=    11a
Ene=  -0.48538006434018177     
Spin= Alpha
Occup=     2.00000000
           1  -5.5630011414947375E-002
           2 -0.24011329666703346     
           3  0.32867716209299425     
           4 -0.25243735930462718     
           5  -8.9239525138616674E-002
           6  0.30843052498481793     
           7   2.7897328318006433E-002
           8  -2.5777161927142887E-002
           9   2.1349212082100309E-002
          10 -0.14793467495842832     
          11   6.0772754723876797E-002
          12  -4.5305285511579849E-002
          13  -2.7423025540175013E-002
          14 -0.13189677218402257     
          15  0.26921248715043533     
          16 -0.20761591033869325     
          17   3.4816855185720925E-002
          18  0.16107975225063942     
          19   9.8674800345083993E-003
          20  -9.8035979608624684E-003
          21  -4.5787795013016802E-002
          22 -0.10042785182353141     
          23 -0.12149959077576006     
          24   9.5818085239649423E-002
          25  0.38262205401344934     
          26  -6.1593778999758077E-002
          27  -6.1592353863865260E-002
          28   7.9615906544041368E-002
          29   7.9621194235262163E-002
          30   1.1198881053500528E-002
          31 -0.13509067886316697     
          32  -5.9362460377588001E-002
Sym=    12a
Ene=  -0.48130214261132631     
Spin= Alpha
Occup=     2.00000000
           1   1.8736648045420683E-002
           2  0.33942902425480243     
           3   8.7595843136253043E-002
           4  -7.2604359480693367E-002
           5  -1.9629437912157658E-002
           6 -0.32596483202751741     
           7   6.8108979432047204E-002
           8  -4.8664879192309003E-002
           9  -4.0876176189610147E-002
          10  -4.5156500354265855E-002
          11  -5.1495524450915514E-002
          12   4.0645673674719433E-002
          13  -2.8903694379796223E-002
          14   5.8470022154919971E-003
          15   9.8163803435365474E-002
          16  -7.6413049866263780E-002
          17   8.6748314347102659E-002
          18   8.3396271352013190E-002
          19  0.21827549236633736     
          20 -0.17085384179290866     
          21   1.2605339268784762E-002
          22 -0.36818577125371654     
          23   3.4298297682139996E-002
          24  -2.1803864509518857E-002
          25   5.5255485987261557E-002
          26 -0.16335200044413481     
          27 -0.16334440989074028     
          28 -0.10428830793722953     
          29 -0.10428125625445886     
          30 -0.18791925191300035     
          31   2.1229048214709986E-002
          32 -0.30776049986300247     
Sym=    13a
Ene=  -0.46311714351865563     
Spin= Alpha
Occup=     2.00000000
           1  -2.8179667694693409E-002
           2 -0.22024339047954405     
           3 -0.23658733834221934     
           4  0.18685545774087189     
           5  -3.1975609208722888E-002
           6  0.19141194025818145     
           7  0.19458014408487315     
           8 -0.15381628014068865     
           9 -0.17432813367166825     
          10 -0.15566637369855524     
          11 -0.15168369532909842     
          12  0.12002152116840324     
          13  -9.0359577831283192E-002
          14  0.15409760108669099     
          15  0.17621179249534732     
          16 -0.13909807595460064     
          17   2.6743497757634731E-002
          18  0.17057566064753865     
          19   2.0225767407638259E-002
          20  -1.7982836879786770E-002
          21  -4.9880173997246206E-003
          22 -0.26078224521955534     
          23   4.1022908267635105E-002
          24  -2.8452148271614987E-002
          25 -0.27078447897307101     
          26  0.19134789806568120     
          27  0.19128632105325258     
          28  0.18025133311855909     
          29  0.18020234483313016     
          30   2.3994043886362655E-003
          31   7.7605014729454483E-002
          32 -0.25506621777437616     
Sym=    14a
Ene=  -0.45876644899507169     
Spin= Alpha
Occup=     2.00000000
           1   3.1453821280924854E-006
           2  -4.7329875234783450E-003
           3 -0.27966794350986340     
           4 -0.35965708605215579     
           5   2.8365597470524350E-006
           6   3.5724494601135671E-003
           7  0.21121227304343346     
           8  0.27161865995362272     
           9   1.4971717992601528E-005
          10   8.7911362180237033E-005
          11   4.4131118656116890E-003
          12   5.6510922451907834E-003
          13   6.8048821774735464E-006
          14  -2.3692926253593614E-003
          15 -0.13878206823602335     
          16 -0.17842484810509471     
          17  -1.7739741939975615E-006
          18   3.7050738100083750E-004
          19   2.2501472891929920E-002
          20   2.8924930726338231E-002
          21   9.7247324615091559E-007
          22   3.5446488074440755E-004
          23   1.9753868695853875E-002
          24   2.5416384647626473E-002
          25   2.4338666021868254E-005
          26  0.35683221960914641     
          27 -0.35687222789593837     
          28  0.28870969089860193     
          29 -0.28874153801669777     
          30  -7.3585943177188707E-006
          31  -1.2025357536103887E-005
          32   2.0994732163639686E-005
Sym=    15a
Ene=  -0.44911798662395153     
Spin= Alpha
Occup=     2.00000000
           1   9.8887294628049426E-003
           2  -3.6077275318412531E-002
           3  -6.2439753531031844E-002
           4   4.9043453230126551E-002
           5   3.1744385939517276E-002
           6   3.5438141888979466E-002
           7   1.9147864665872483E-002
           8  -1.5365712044998425E-002
           9   3.7977987202244101E-002
          10   5.0063196398619211E-002
          11  -3.9558750393712573E-002
          12   3.0102190187031721E-002
          13   7.6124147746124580E-003
          14  0.28114969021742003     
          15 -0.16448474533506049     
          16  0.12420438523419784     
          17  -7.5938574569629241E-002
          18  0.12287753096682107     
          19  0.25265408528139477     
          20 -0.19811120532957119     
          21   3.6345994384563977E-002
          22   2.1005741713909388E-002
          23 -0.33343211804343981     
          24  0.25903166716218662     
          25  -7.2996118821778394E-002
          26   4.4886587661584050E-002
          27   4.4895845542107120E-002
          28   2.5625312621002313E-002
          29   2.5632909018333535E-002
          30 -0.36283716820348205     
          31 -0.40942893239677602     
          32  0.19328273362565868     
Sym=    16a
Ene=  -0.41593385107407005     
Spin= Alpha
Occup=     1.99954482
           1  -1.2522578003878853E-007
           2   4.4770204545285395E-004
           3   2.6326901683488575E-002
           4   3.3854537206435879E-002
           5  -8.1621888826770881E-007
           6  -7.5086867228807365E-004
           7  -4.4174809111264347E-002
           8  -5.6807030644885854E-002
           9  -6.6276444148093313E-007
          10   8.3995362727061712E-004
          11   4.9363843233427393E-002
          12   6.3477584370817686E-002
          13  -1.6679784571342748E-007
          14  -3.1224818828729777E-003
          15 -0.18345835345663117     
          16 -0.23590841830123618     
          17   5.5890720687817092E-006
          18   6.7180688558965175E-003
          19  0.39517908097856763     
          20  0.50814352033401744     
          21  -4.0914432228994734E-006
          22   5.8966683544688127E-003
          23  0.34668357196871452     
          24  0.44578283110887879     
          25  -1.5357234442803902E-006
          26  -3.6912444201823817E-002
          27   3.6914243646913911E-002
          28  -5.5532622196579659E-002
          29   5.5534354721763601E-002
          30  -1.0028566884568760E-006
          31   9.1145451843167060E-007
          32   1.5026634472564349E-006
Sym=    17a
Ene=  -0.40131390357386471     
Spin= Alpha
Occup=     1.00045518
           1  -1.1003003376575046E-002
           2  -7.2396402285185471E-002
           3   6.4878331909412848E-002
           4  -4.9499464659227485E-002
           5  0.11770357664700554     
           6   5.9050368839031829E-002
           7 -0.26500647441800945     
           8  0.20531355127883277     
           9  -3.4472619576309170E-002
          10 -0.22362336862371604     
          11  0.14303455984664737     
          12 -0.10827912677486612     
          13  -1.8570500265166347E-003
          14  0.51834430707386392     
          15 -0.39269635818187804     
          16  0.29854073063573933     
          17 -0.13433558792649039     
          18  0.32235867517824335     
          19 -0.11209592631275846     
          20   8.2919408254847671E-002
          21   2.9604729418751023E-002
          22 -0.15508218909322857     
          23   4.4949068971861135E-002
          24  -3.2899282590733055E-002
          25  0.11047947379350166     
          26  -2.9483880649270922E-002
          27  -2.9484454999783655E-002
          28  -5.5178993405668827E-002
          29  -5.5179159520156167E-002
          30  0.14660874630778578     
          31  0.10543347230317580     
          32 -0.20166180382596166     
Sym=    18a
Ene=  -0.27481552137848875     
Spin= Alpha
Occup=     1.00000000
           1   7.2308048946893617E-009
           2   4.5795095948160866E-005
           3   2.6868856534371429E-003
           4   3.4550029902805958E-003
           5   2.2711025995953842E-007
           6  -4.0199447086281112E-004
           7  -2.3664703229652726E-002
           8  -3.0428497436954315E-002
           9  -1.7709289998825511E-006
          10   6.8664896364082871E-003
          11  0.40397174888065429     
          12  0.51945055480767277     
          13  -7.6258187099253902E-008
          14  -5.3897968958267640E-003
          15 -0.31708407958391571     
          16 -0.40772481057304488     
          17   1.7032665077934723E-006
          18   2.7319272145176435E-003
          19  0.16068868486533933     
          20  0.20662334592674533     
          21   4.2998171759630130E-006
          22  -6.4992369213831228E-003
          23 -0.38220661941063411     
          24 -0.49146093737760005     
          25   1.3589506022619718E-007
          26  -1.4292512932272215E-002
          27   1.4292663636734135E-002
          28 -0.13437068852937029     
          29  0.13437165866143763     
          30  -1.0747039494007771E-006
          31  -1.2645326537466177E-006
          32  -1.6197658122872619E-006
Sym=    19a
Ene=  -0.16535161715583116     
Spin= Alpha
Occup=     0.00000000