 Generated by Molden2AIM, Version 5.1.2 (07/17/2025)           Time: Thu Feb 12 11:36:07 2026
GAUSSIAN             38 MOL ORBITALS    114 PRIMITIVES       14 NUCLEI
  C    1    (CENTRE  1)  -3.67285280  1.45125297 -1.08007297  CHARGE =  6.0
  C    2    (CENTRE  2)  -0.85428849  0.99836121 -0.76511231  CHARGE =  6.0
  C    3    (CENTRE  3)  -0.29562875 -1.22688579  0.95805335  CHARGE =  6.0
  O    4    (CENTRE  4)  -1.96427582 -2.49417392  1.96567422  CHARGE =  8.0
  C    5    (CENTRE  5)   2.38402179 -1.93077098  1.47003685  CHARGE =  6.0
  C    6    (CENTRE  6)   4.40909010 -0.74835044  0.52368090  CHARGE =  6.0
  H    7    (CENTRE  7)  -4.00731543  3.06437988 -2.33016459  CHARGE =  1.0
  H    8    (CENTRE  8)  -4.60501690 -0.20514867 -1.89841886  CHARGE =  1.0
  H    9    (CENTRE  9)  -4.57011366  1.84824664  0.74192537  CHARGE =  1.0
  H   10    (CENTRE 10)   0.01296352  2.69590219  0.04074250  CHARGE =  1.0
  H   11    (CENTRE 11)  -0.02224208  0.62446000 -2.62282648  CHARGE =  1.0
  H   12    (CENTRE 12)   2.60714175 -3.54321759  2.72105444  CHARGE =  1.0
  H   13    (CENTRE 13)   4.28357449  0.86679848 -0.73073820  CHARGE =  1.0
  H   14    (CENTRE 14)   6.29494228 -1.40085398  1.00620357  CHARGE =  1.0
CENTRE ASSIGNMENTS    1  1  1  1  1  1  1  1  1  1  1  1  1  1  1  2  2  2  2  2
CENTRE ASSIGNMENTS    2  2  2  2  2  2  2  2  2  2  3  3  3  3  3  3  3  3  3  3
CENTRE ASSIGNMENTS    3  3  3  3  3  4  4  4  4  4  4  4  4  4  4  4  4  4  4  4
CENTRE ASSIGNMENTS    5  5  5  5  5  5  5  5  5  5  5  5  5  5  5  6  6  6  6  6
CENTRE ASSIGNMENTS    6  6  6  6  6  6  6  6  6  6  7  7  7  8  8  8  9  9  9 10
CENTRE ASSIGNMENTS   10 10 11 11 11 12 12 12 13 13 13 14 14 14
TYPE ASSIGNMENTS      1  1  1  1  1  1  2  2  2  3  3  3  4  4  4  1  1  1  1  1
TYPE ASSIGNMENTS      1  2  2  2  3  3  3  4  4  4  1  1  1  1  1  1  2  2  2  3
TYPE ASSIGNMENTS      3  3  4  4  4  1  1  1  1  1  1  2  2  2  3  3  3  4  4  4
TYPE ASSIGNMENTS      1  1  1  1  1  1  2  2  2  3  3  3  4  4  4  1  1  1  1  1
TYPE ASSIGNMENTS      1  2  2  2  3  3  3  4  4  4  1  1  1  1  1  1  1  1  1  1
TYPE ASSIGNMENTS      1  1  1  1  1  1  1  1  1  1  1  1  1  1
EXPONENTS  0.7161684D+02 0.1304510D+02 0.3530512D+01 0.2941249D+01 0.6834831D+00
EXPONENTS  0.2222899D+00 0.2941249D+01 0.6834831D+00 0.2222899D+00 0.2941249D+01
EXPONENTS  0.6834831D+00 0.2222899D+00 0.2941249D+01 0.6834831D+00 0.2222899D+00
EXPONENTS  0.7161684D+02 0.1304510D+02 0.3530512D+01 0.2941249D+01 0.6834831D+00
EXPONENTS  0.2222899D+00 0.2941249D+01 0.6834831D+00 0.2222899D+00 0.2941249D+01
EXPONENTS  0.6834831D+00 0.2222899D+00 0.2941249D+01 0.6834831D+00 0.2222899D+00
EXPONENTS  0.7161684D+02 0.1304510D+02 0.3530512D+01 0.2941249D+01 0.6834831D+00
EXPONENTS  0.2222899D+00 0.2941249D+01 0.6834831D+00 0.2222899D+00 0.2941249D+01
EXPONENTS  0.6834831D+00 0.2222899D+00 0.2941249D+01 0.6834831D+00 0.2222899D+00
EXPONENTS  0.1307093D+03 0.2380886D+02 0.6443608D+01 0.5033151D+01 0.1169596D+01
EXPONENTS  0.3803890D+00 0.5033151D+01 0.1169596D+01 0.3803890D+00 0.5033151D+01
EXPONENTS  0.1169596D+01 0.3803890D+00 0.5033151D+01 0.1169596D+01 0.3803890D+00
EXPONENTS  0.7161684D+02 0.1304510D+02 0.3530512D+01 0.2941249D+01 0.6834831D+00
EXPONENTS  0.2222899D+00 0.2941249D+01 0.6834831D+00 0.2222899D+00 0.2941249D+01
EXPONENTS  0.6834831D+00 0.2222899D+00 0.2941249D+01 0.6834831D+00 0.2222899D+00
EXPONENTS  0.7161684D+02 0.1304510D+02 0.3530512D+01 0.2941249D+01 0.6834831D+00
EXPONENTS  0.2222899D+00 0.2941249D+01 0.6834831D+00 0.2222899D+00 0.2941249D+01
EXPONENTS  0.6834831D+00 0.2222899D+00 0.2941249D+01 0.6834831D+00 0.2222899D+00
EXPONENTS  0.3425251D+01 0.6239137D+00 0.1688554D+00 0.3425251D+01 0.6239137D+00
EXPONENTS  0.1688554D+00 0.3425251D+01 0.6239137D+00 0.1688554D+00 0.3425251D+01
EXPONENTS  0.6239137D+00 0.1688554D+00 0.3425251D+01 0.6239137D+00 0.1688554D+00
EXPONENTS  0.3425251D+01 0.6239137D+00 0.1688554D+00 0.3425251D+01 0.6239137D+00
EXPONENTS  0.1688554D+00 0.3425251D+01 0.6239137D+00 0.1688554D+00
MO    1     MO 0.0        OCC NO =    2.0000000  ORB. ENERGY =  -20.285431
  0.16329440D-04  0.15793123D-04  0.49220266D-05  0.69627820D-05 -0.93132834D-05
 -0.70288735D-05 -0.11010585D-03 -0.69237516D-04 -0.10968385D-04  0.42138087D-04
  0.26497561D-04  0.41976584D-05 -0.31317198D-04 -0.19693095D-04 -0.31197168D-05
 -0.10194773D-03 -0.98599405D-04 -0.30729129D-04 -0.45591023D-04  0.60981676D-04
  0.46023777D-04 -0.35628111D-03 -0.22403913D-03 -0.35491558D-04 -0.22537051D-03
 -0.14171903D-03 -0.22450672D-04  0.17998032D-03  0.11317646D-03  0.17929050D-04
  0.14187578D-02  0.13721607D-02  0.42764256D-03  0.11330448D-02 -0.15155389D-02
 -0.11437998D-02  0.38565120D-02  0.24250783D-02  0.38417311D-03  0.30311432D-02
  0.19060642D-02  0.30195256D-03 -0.24082962D-02 -0.15144013D-02 -0.23990659D-03
  0.42276185D+01  0.40887678D+01  0.12742905D+01 -0.61959985D-02  0.82876485D-02
  0.62548125D-02  0.66321711D-02  0.41704872D-02  0.66067534D-03  0.50356923D-02
  0.31665785D-02  0.50163931D-03 -0.40039284D-02 -0.25177777D-02 -0.39885834D-03
 -0.81992436D-04 -0.79299511D-04 -0.24714195D-04 -0.67171185D-04  0.89846886D-04
  0.67808781D-04 -0.30588442D-03 -0.19234833D-03 -0.30471204D-04 -0.24194350D-03
 -0.15214057D-03 -0.24101620D-04  0.19220950D-03  0.12086650D-03  0.19147282D-04
  0.21215490D-04  0.20518697D-04  0.63947819D-05 -0.42643351D-05  0.57038927D-05
  0.43048126D-05  0.35426371D-04  0.22277053D-04  0.35290592D-05 -0.41015180D-04
 -0.25791447D-04 -0.40857980D-05  0.31434107D-04  0.19766610D-04  0.31313628D-05
 -0.17529857D-05 -0.16954115D-05 -0.52838569D-06 -0.25222056D-04 -0.24393674D-04
 -0.76024425D-05 -0.25220844D-04 -0.24392501D-04 -0.76020771D-05  0.32477387D-05
  0.31410714D-05  0.97893474D-06  0.32467385D-05  0.31401041D-05  0.97863327D-06
 -0.68009769D-04 -0.65776086D-04 -0.20499533D-04 -0.45719526D-05 -0.44217934D-05
 -0.13780798D-05 -0.38970019D-05 -0.37690105D-05 -0.11746359D-05
MO    2     MO 0.0        OCC NO =    2.0000000  ORB. ENERGY =  -11.080001
 -0.21098617D-02 -0.20405663D-02 -0.63595541D-03 -0.68570807D-04  0.91718993D-04
  0.69221688D-04  0.23916740D-03  0.15039488D-03  0.23825073D-04  0.28442871D-04
  0.17885641D-04  0.28333857D-05 -0.25282254D-04 -0.15898160D-04 -0.25185354D-05
 -0.11601742D-01 -0.11220699D-01 -0.34970020D-02  0.10602469D-02 -0.14181659D-02
 -0.10703109D-02 -0.78040856D-03 -0.49074186D-03 -0.77741747D-04  0.43707661D-02
  0.27484551D-02  0.43540142D-03 -0.33887962D-02 -0.21309660D-02 -0.33758078D-03
  0.26894902D+01  0.26011578D+01  0.81066729D+00 -0.49573507D-02  0.66308570D-02
  0.50044064D-02 -0.44580590D-03 -0.28033472D-03 -0.44409725D-04 -0.19871344D-02
 -0.12495635D-02 -0.19795183D-03  0.15513063D-02  0.97550303D-03  0.15453605D-03
  0.72586874D-03  0.70202853D-03  0.21879166D-03  0.14073870D-02 -0.18824938D-02
 -0.14207462D-02 -0.24536672D-02 -0.15429318D-02 -0.24442636D-03 -0.11415563D-02
 -0.71784125D-03 -0.11371813D-03  0.92025409D-03  0.57868048D-03  0.91672723D-04
 -0.37472229D-02 -0.36241507D-02 -0.11294895D-02  0.95804067D-03 -0.12814568D-02
 -0.96713449D-03  0.37613555D-02  0.23652414D-02  0.37469393D-03 -0.83484568D-03
 -0.52497338D-03 -0.83164594D-04  0.59951206D-03  0.37698928D-03  0.59721430D-04
 -0.62870358D-03 -0.60805471D-03 -0.18950410D-03 -0.41461520D-04  0.55458132D-04
  0.41855077D-04 -0.19353487D-03 -0.12169992D-03 -0.19279310D-04  0.66821758D-04
  0.42019315D-04  0.66565648D-05 -0.49414821D-04 -0.31073366D-04 -0.49225427D-05
 -0.14234957D-03 -0.13767430D-03 -0.42907065D-04 -0.86314850D-05 -0.83479963D-05
 -0.26017058D-05 -0.86297903D-05 -0.83463573D-05 -0.26011949D-05  0.99107549D-04
  0.95852505D-04  0.29873038D-04  0.99107936D-04  0.95852879D-04  0.29873155D-04
 -0.17999044D-04 -0.17407892D-04 -0.54252794D-05 -0.11797634D-04 -0.11410158D-04
 -0.35560477D-05 -0.36263838D-04 -0.35072804D-04 -0.10930661D-04
MO    3     MO 0.0        OCC NO =    2.0000000  ORB. ENERGY =  -11.047863
 -0.34458470D-01 -0.33326730D-01 -0.10386486D-01  0.10127830D-02 -0.13546791D-02
 -0.10223964D-02 -0.35960518D-02 -0.22612939D-02 -0.35822691D-03  0.57893099D-03
  0.36404735D-03  0.57671210D-04 -0.40270635D-03 -0.25323257D-03 -0.40116289D-04
  0.26857214D+01  0.25975127D+01  0.80953127D+00 -0.60248071D-02  0.80586662D-02
  0.60819952D-02 -0.15568716D-05 -0.97900265D-06 -0.15509045D-06  0.20083971D-03
  0.12629340D-03  0.20006995D-04 -0.15616646D-03 -0.98201664D-04 -0.15556792D-04
  0.15304920D-01  0.14802252D-01  0.46132155D-02  0.94059523D-03 -0.12581221D-02
 -0.94952345D-03  0.99107252D-03  0.62321301D-03  0.98727401D-04 -0.30533901D-02
 -0.19200537D-02 -0.30416873D-03  0.23614973D-02  0.14849729D-02  0.23524463D-03
 -0.84159283D-04 -0.81395181D-04 -0.25367327D-04 -0.52865888D-04  0.70712395D-04
  0.53367704D-04 -0.19763426D-03 -0.12427773D-03 -0.19687683D-04  0.37865119D-03
  0.23810603D-03  0.37720002D-04 -0.29183042D-03 -0.18351080D-03 -0.29071199D-04
 -0.20869349D-02 -0.20183925D-02 -0.62904479D-03 -0.44080959D-04  0.58961843D-04
  0.44499379D-04 -0.12217865D-03 -0.76829214D-04 -0.12171037D-04  0.83295142D-04
  0.52378222D-04  0.82975894D-05 -0.63172465D-04 -0.39724542D-04 -0.62930342D-05
 -0.11305243D-02 -0.10933938D-02 -0.34076311D-03  0.79987955D-05 -0.10699035D-04
 -0.80747208D-05  0.13900918D-03  0.87412703D-04  0.13847639D-04 -0.59431319D-06
 -0.37372009D-06 -0.59203535D-07 -0.13822852D-05 -0.86921804D-06 -0.13769873D-06
  0.35038440D-04  0.33887653D-04  0.10561301D-04  0.41617133D-04  0.40250279D-04
  0.12544254D-04  0.41615569D-04  0.40248766D-04  0.12543782D-04 -0.19233879D-02
 -0.18602170D-02 -0.57974839D-03 -0.19233771D-02 -0.18602066D-02 -0.57974513D-03
 -0.31158045D-04 -0.30134704D-04 -0.93916707D-05 -0.25374908D-04 -0.24541506D-04
 -0.76485154D-05 -0.61906791D-05 -0.59873552D-05 -0.18659970D-05
MO    4     MO 0.0        OCC NO =    2.0000000  ORB. ENERGY =  -11.037748
  0.26857966D+01  0.25975854D+01  0.80955394D+00 -0.60245011D-02  0.80582568D-02
  0.60816862D-02 -0.18885145D-03 -0.11875486D-03 -0.18812764D-04  0.53708641D-04
  0.33773435D-04  0.53502790D-05 -0.39295301D-04 -0.24709940D-04 -0.39144692D-05
  0.37078887D-01  0.35861084D-01  0.11176334D-01  0.84485554D-03 -0.11300625D-02
 -0.85287499D-03  0.36203372D-02  0.22765652D-02  0.36064614D-03 -0.61369635D-03
 -0.38590874D-03 -0.61134422D-04  0.42942474D-03  0.27003381D-03  0.42777887D-04
  0.23029173D-02  0.22272813D-02  0.69414632D-03 -0.10158961D-04  0.13588431D-04
  0.10255391D-04  0.13533656D-03  0.85103262D-04  0.13481785D-04  0.27959147D-04
  0.17581462D-04  0.27851987D-05 -0.23532095D-04 -0.14797613D-04 -0.23441903D-05
  0.30503877D-04  0.29502016D-04  0.91944913D-05 -0.60254846D-05  0.80595723D-05
  0.60826800D-05  0.13259815D-03  0.83381279D-04  0.13208997D-04 -0.85495404D-04
 -0.53761805D-04 -0.85167745D-05  0.64738994D-04  0.40709617D-04  0.64490883D-05
 -0.14763790D-02 -0.14278895D-02 -0.44501079D-03  0.18355962D-04 -0.24552582D-04
 -0.18530198D-04  0.58365560D-04  0.36701831D-04  0.58141860D-05 -0.46252907D-04
 -0.29085070D-04 -0.46075632D-05  0.35197765D-04  0.22133299D-04  0.35062861D-05
 -0.30073363D-03 -0.29085647D-03 -0.90647258D-04 -0.16706843D-05  0.22346752D-05
  0.16865426D-05  0.17578957D-04  0.11054120D-04  0.17511581D-05 -0.42697600D-05
 -0.26849398D-05 -0.42533952D-06  0.30874792D-05  0.19414898D-05  0.30756457D-06
 -0.19180370D-02 -0.18550418D-02 -0.57813550D-03 -0.19151564D-02 -0.18522558D-02
 -0.57726723D-03 -0.19151328D-02 -0.18522330D-02 -0.57726012D-03 -0.15020290D-04
 -0.14526970D-04 -0.45274220D-05 -0.15021597D-04 -0.14528234D-04 -0.45278158D-05
 -0.85197361D-06 -0.82399177D-06 -0.25680224D-06 -0.10310197D-04 -0.99715732D-05
 -0.31077038D-05 -0.29762924D-05 -0.28785403D-05 -0.89711528D-06
MO    5     MO 0.0        OCC NO =    2.0000000  ORB. ENERGY =  -11.026379
  0.15180376D-02  0.14681798D-02  0.45756754D-03  0.12142462D-04 -0.16241524D-04
 -0.12257720D-04 -0.52570069D-04 -0.33057471D-04 -0.52368582D-05  0.27608865D-04
  0.17361196D-04  0.27503048D-05 -0.20776729D-04 -0.13064965D-04 -0.20697098D-05
  0.20994445D-02  0.20304912D-02  0.63281544D-03 -0.34047106D-04  0.45540754D-04
  0.34370284D-04 -0.49365306D-04 -0.31042230D-04 -0.49176102D-05  0.10731200D-03
  0.67480669D-04  0.10690071D-04 -0.82805492D-04 -0.52070317D-04 -0.82488121D-05
  0.70981968D-02  0.68650667D-02  0.21395415D-02  0.10511390D-02 -0.14059833D-02
 -0.10611165D-02 -0.37999740D-02 -0.23895257D-02 -0.37854097D-03  0.78978113D-03
  0.49663558D-03  0.78675411D-04 -0.56396011D-03 -0.35463326D-03 -0.56179860D-04
 -0.15165540D-03 -0.14667448D-03 -0.45712036D-04 -0.85436627D-04  0.11427839D-03
  0.86247612D-04  0.57676420D-03  0.36268481D-03  0.57455376D-04  0.32053888D-04
  0.20156345D-04  0.31931042D-05 -0.32522929D-04 -0.20451291D-04 -0.32398285D-05
  0.26865856D+01  0.25983485D+01  0.80979177D+00 -0.57174851D-02  0.76475981D-02
  0.57717560D-02  0.15589909D-02  0.98033533D-03  0.15530157D-03  0.40382928D-03
  0.25393870D-03  0.40228151D-04 -0.33479593D-03 -0.21052867D-03 -0.33351275D-04
  0.49617610D-01  0.47987990D-01  0.14955761D-01  0.11726709D-02 -0.15685421D-02
 -0.11838020D-02  0.31687720D-02  0.19926089D-02  0.31566269D-03  0.18655208D-02
  0.11730896D-02  0.18583707D-03 -0.14927350D-02 -0.93867185D-03 -0.14870138D-03
 -0.83413300D-05 -0.80673710D-05 -0.25142471D-05  0.21317946D-05  0.20617789D-05
  0.64256640D-06  0.21318276D-05  0.20618108D-05  0.64257635D-06 -0.12659052D-04
 -0.12243284D-04 -0.38156967D-05 -0.12658512D-04 -0.12242761D-04 -0.38155338D-05
 -0.18806901D-02 -0.18189215D-02 -0.56687838D-03  0.15452104D-04  0.14944602D-04
  0.46575794D-05 -0.29193909D-04 -0.28235077D-04 -0.87996401D-05
MO    6     MO 0.0        OCC NO =    2.0000000  ORB. ENERGY =  -11.015145
  0.27037222D-03  0.26149223D-03  0.81495707D-04  0.45729656D-05 -0.61167109D-05
 -0.46163727D-05 -0.18467496D-04 -0.11612857D-04 -0.18396715D-05 -0.10101712D-05
 -0.63522278D-06 -0.10062995D-06  0.10294747D-05  0.64736131D-06  0.10255290D-06
  0.11788717D-02  0.11401534D-02  0.35533601D-03  0.20778590D-05 -0.27793043D-05
 -0.20975823D-05 -0.94270962D-04 -0.59280112D-04 -0.93909647D-05  0.61169143D-04
  0.38464799D-04  0.60934698D-05 -0.46325394D-04 -0.29130651D-04 -0.46147841D-05
  0.38012752D-03  0.36764278D-03  0.11457820D-03 -0.72024541D-04  0.96338642D-04
  0.72708206D-04  0.18801715D-03  0.11823023D-03  0.18729653D-04 -0.94103235D-04
 -0.59174640D-04 -0.93742562D-05  0.70697524D-04  0.44456501D-04  0.70426560D-05
  0.57731578D-04  0.55835459D-04  0.17401477D-04  0.26679552D-04 -0.35686055D-04
 -0.26932801D-04 -0.15480152D-03 -0.97343351D-04 -0.15420825D-04 -0.61429804D-05
 -0.38628710D-05 -0.61194375D-06  0.68208553D-05  0.42891369D-05  0.67947145D-06
 -0.47848267D-01 -0.46276759D-01 -0.14422445D-01  0.13917229D-02 -0.18615418D-02
 -0.14049333D-02 -0.33419076D-02 -0.21014812D-02 -0.33290990D-03 -0.19033012D-02
 -0.11968469D-02 -0.18960064D-03  0.15244077D-02  0.95858852D-03  0.15185651D-03
  0.26862498D+01  0.25980238D+01  0.80969056D+00 -0.58401112D-02  0.78116204D-02
  0.58955461D-02 -0.12149048D-02 -0.76396476D-03 -0.12102484D-03 -0.81375858D-03
 -0.51171325D-03 -0.81063967D-04  0.64901386D-03  0.40811734D-03  0.64652636D-04
 -0.39026632D-06 -0.37744859D-06 -0.11763424D-06  0.41842549D-06  0.40468290D-06
  0.12612198D-06  0.41844544D-06  0.40470220D-06  0.12612800D-06 -0.46898821D-05
 -0.45358497D-05 -0.14136262D-05 -0.46913789D-05 -0.45372974D-05 -0.14140774D-05
  0.63406036D-04  0.61323556D-04  0.19111873D-04 -0.18821145D-02 -0.18202991D-02
 -0.56730772D-03 -0.18918473D-02 -0.18297123D-02 -0.57024140D-03
MO    7     MO 0.0        OCC NO =    2.0000000  ORB. ENERGY =   -1.303198
 -0.15363349D-01 -0.14858762D-01 -0.46308272D-02 -0.23588488D-02  0.31551508D-02
  0.23812392D-02  0.49625160D-02  0.31205633D-02  0.49434960D-03 -0.37055421D-02
 -0.23301443D-02 -0.36913397D-03  0.28161633D-02  0.17708791D-02  0.28053697D-03
 -0.73869672D-02 -0.71443529D-02 -0.22265828D-02 -0.71508439D-03  0.95648314D-03
  0.72187204D-03 -0.62121240D-02 -0.39063504D-02 -0.61883146D-03  0.15335185D-01
  0.96431758D-02  0.15276409D-02 -0.11844022D-01 -0.74478388D-02 -0.11798627D-02
 -0.23935482D+00 -0.23149355D+00 -0.72146430D-01 -0.27567427D-01  0.36873661D-01
  0.27829100D-01 -0.12481029D+00 -0.78484064D-01 -0.12433193D-01 -0.99434942D-01
 -0.62527361D-01 -0.99053835D-02  0.78980017D-01  0.49664755D-01  0.78677308D-02
 -0.97231137D+00 -0.94037707D+00 -0.29307450D+00 -0.19452883D+00  0.26019803D+00
  0.19637535D+00  0.20770006D+00  0.13060737D+00  0.20690405D-01  0.15624527D+00
  0.98251218D-01  0.15564646D-01 -0.12425613D+00 -0.78135592D-01 -0.12377992D-01
 -0.85159389D-02 -0.82362450D-02 -0.25668779D-02 -0.44914143D-03  0.60076294D-03
  0.45340472D-03  0.86039693D-02  0.54104069D-02  0.85709926D-03 -0.71279748D-02
 -0.44822619D-02 -0.71006552D-03  0.54293305D-02  0.34141088D-02  0.54085214D-03
 -0.46925844D-02 -0.45384632D-02 -0.14144408D-02 -0.10241617D-02  0.13698991D-02
  0.10338832D-02 -0.34408240D-02 -0.21636825D-02 -0.34276363D-03 -0.20672118D-02
 -0.12999183D-02 -0.20592887D-03  0.16531066D-02  0.10395178D-02  0.16467707D-03
 -0.75567711D-03 -0.73085798D-03 -0.22777651D-03  0.14833650D-02  0.14346460D-02
  0.44711650D-03  0.14833379D-02  0.14346198D-02  0.44710833D-03  0.22588702D-02
  0.21846809D-02  0.68086959D-03  0.22588948D-02  0.21847046D-02  0.68087700D-03
  0.26884480D-02  0.26001498D-02  0.81035310D-03  0.91946838D-03  0.88926977D-03
  0.27714654D-03 -0.10310222D-02 -0.99715973D-03 -0.31077113D-03
MO    8     MO 0.0        OCC NO =    2.0000000  ORB. ENERGY =   -0.972808
 -0.46718662D+00 -0.45184255D+00 -0.14081959D+00 -0.76616642D-01  0.10248095D+00
  0.77343895D-01  0.54634491D-01  0.34355635D-01  0.54425091D-02 -0.44449823D-02
 -0.27951242D-02 -0.44279459D-03  0.27341021D-02  0.17192768D-02  0.27236231D-03
 -0.36537859D+00 -0.35337825D+00 -0.11013257D+00 -0.58341613D-01  0.78036620D-01
  0.58895398D-01 -0.74627066D-01 -0.46927503D-01 -0.74341041D-02  0.80139994D-01
  0.50394180D-01  0.79832840D-02 -0.61337810D-01 -0.38570862D-01 -0.61102719D-02
  0.11567896D-03  0.11187965D-03  0.34868002D-04  0.40693365D-02 -0.54430663D-02
 -0.41079631D-02 -0.43868498D-03 -0.27585689D-03 -0.43700362D-04  0.21716313D-02
  0.13655800D-02  0.21633080D-03 -0.16829189D-02 -0.10582646D-02 -0.16764687D-03
  0.59859400D-01  0.57893395D-01  0.18042845D-01  0.12633231D-01 -0.16897966D-01
 -0.12753148D-01 -0.19007571D-01 -0.11952471D-01 -0.18934725D-02  0.22269107D-01
  0.14003412D-01  0.22183761D-02 -0.17066698D-01 -0.10731998D-01 -0.17001290D-02
 -0.12018037D+00 -0.11623322D+00 -0.36224819D-01 -0.18487637D-01  0.24728707D-01
  0.18663123D-01  0.52612264D-01  0.33084004D-01  0.52410615D-02  0.10810169D-01
  0.67977245D-02  0.10768737D-02 -0.91036795D-02 -0.57246381D-02 -0.90687876D-03
 -0.16605310D+00 -0.16059933D+00 -0.50051797D-01 -0.26392373D-01  0.35301931D-01
  0.26642892D-01 -0.27424102D-01 -0.17245012D-01 -0.27318993D-02 -0.13923996D-01
 -0.87557825D-02 -0.13870629D-02  0.11191761D-01  0.70376797D-02  0.11148866D-02
  0.31417947D-01  0.30386070D-01  0.94700107D-02  0.32574834D-01  0.31504961D-01
  0.98187199D-02  0.32574325D-01  0.31504469D-01  0.98185666D-02  0.32084545D-01
  0.31030774D-01  0.96709367D-02  0.32084361D-01  0.31030597D-01  0.96708815D-02
  0.83134882D-02  0.80404437D-02  0.25058550D-02  0.12744121D-01  0.12325558D-01
  0.38413381D-02  0.10263624D-01  0.99265305D-02  0.30936659D-02
MO    9     MO 0.0        OCC NO =    2.0000000  ORB. ENERGY =   -0.959603
  0.16977815D+00  0.16420202D+00  0.51174600D-01  0.28213332D-01 -0.37737610D-01
 -0.28481135D-01 -0.17620322D-01 -0.11080132D-01 -0.17552788D-02  0.13627384D-02
  0.85692649D-03  0.13575154D-03 -0.82667395D-03 -0.51983477D-03 -0.82350553D-04
  0.10155452D+00  0.98219106D-01  0.30610606D-01  0.15788417D-01 -0.21118283D-01
 -0.15938282D-01  0.34928693D-01  0.21964100D-01  0.34794820D-02 -0.22074939D-01
 -0.13881314D-01 -0.21990331D-02  0.16705673D-01  0.10504976D-01  0.16641644D-02
  0.60159567D-02  0.58183712D-02  0.18133322D-02  0.23485632D-02 -0.31413930D-02
 -0.23708560D-02 -0.10035177D-01 -0.63103886D-02 -0.99967146D-03 -0.34667994D-03
 -0.21800165D-03 -0.34535121D-04  0.40269107D-03  0.25322295D-03  0.40114766D-04
 -0.41145203D-02 -0.39793842D-02 -0.12402004D-02 -0.11407187D-02  0.15258034D-02
  0.11515467D-02  0.33670416D-01  0.21172861D-01  0.33541375D-02 -0.16273768D-01
 -0.10233382D-01 -0.16211399D-02  0.12213545D-01  0.76802052D-02  0.12166737D-02
 -0.36819876D+00 -0.35610580D+00 -0.11098263D+00 -0.55005642D-01  0.73574489D-01
  0.55527761D-01  0.18200679D+00  0.11445076D+00  0.18130921D-01  0.25599749D-01
  0.16097810D-01  0.25501632D-02 -0.22317986D-01 -0.14034149D-01 -0.22232447D-02
 -0.51150639D+00 -0.49470669D+00 -0.15417847D+00 -0.81200223D-01  0.10861186D+00
  0.81970983D-01 -0.73122799D-01 -0.45981579D-01 -0.72842539D-02 -0.53042900D-01
 -0.33354799D-01 -0.52839601D-02  0.42219841D-01  0.26548969D-01  0.42058023D-02
 -0.11781808D-01 -0.11394851D-01 -0.35512774D-02 -0.12264152D-01 -0.11861353D-01
 -0.36966657D-02 -0.12263951D-01 -0.11861159D-01 -0.36966052D-02 -0.66790388D-02
 -0.64596754D-02 -0.20131986D-02 -0.66789332D-02 -0.64595733D-02 -0.20131668D-02
  0.31286470D-01  0.30258911D-01  0.94303808D-02  0.36280031D-01  0.35088466D-01
  0.10935542D-01  0.34775267D-01  0.33633124D-01  0.10481975D-01
MO   10     MO 0.0        OCC NO =    2.0000000  ORB. ENERGY =   -0.780470
 -0.32727610D+00 -0.31652718D+00 -0.98647700D-01 -0.59086761D-01  0.79033316D-01
  0.59647619D-01 -0.15871008D+00 -0.99801157D-01 -0.15810178D-01  0.58252459D-02
  0.36630710D-02  0.58029194D-03 -0.24346533D-02 -0.15309754D-02 -0.24253219D-03
  0.39902309D+00  0.38591774D+00  0.12027371D+00  0.70840848D-01 -0.94755357D-01
 -0.71513276D-01 -0.10798154D+00 -0.67901694D-01 -0.10756768D-01 -0.12076989D+00
 -0.75943349D-01 -0.12030701D-01  0.95347488D-01  0.59957060D-01  0.94982047D-02
  0.14077480D-01  0.13615125D-01  0.42432400D-02 -0.23182775D-02  0.31008835D-02
  0.23402828D-02 -0.44360155D-02 -0.27894856D-02 -0.44190134D-03  0.14124368D-02
  0.88817820D-03  0.14070233D-03 -0.10418123D-02 -0.65511957D-03 -0.10378194D-03
  0.99950362D-02  0.96667622D-02  0.30127080D-02  0.31337154D-02 -0.41915975D-02
 -0.31634614D-02 -0.66507797D-02 -0.41821888D-02 -0.66252907D-03 -0.95005491D-02
 -0.59742003D-02 -0.94641384D-03  0.74720961D-02  0.46986546D-02  0.74434594D-03
 -0.43340004D-01 -0.41916564D-01 -0.13063562D-01 -0.74342247D-02  0.99438761D-02
  0.75047911D-02  0.14487645D-01  0.91102203D-02  0.14432118D-02 -0.11766538D-01
 -0.73991150D-02 -0.11721440D-02  0.89603725D-02  0.56345228D-02  0.89260298D-03
 -0.16519492D-01 -0.15976933D-01 -0.49793124D-02 -0.24114780D-02  0.32255466D-02
  0.24343680D-02  0.75164264D-02  0.47265307D-02  0.74876180D-03 -0.22771777D-01
 -0.14319505D-01 -0.22684499D-02  0.17610880D-01  0.11074194D-01  0.17543382D-02
  0.42327424D-01  0.40937241D-01  0.12758350D-01  0.45244923D-01  0.43758919D-01
  0.13637743D-01  0.45243778D-01  0.43757811D-01  0.13637398D-01 -0.65993241D-01
 -0.63825789D-01 -0.19891710D-01 -0.65992511D-01 -0.63825082D-01 -0.19891490D-01
  0.87203493D-02  0.84339420D-02  0.26284913D-02 -0.69079075D-02 -0.66810273D-02
 -0.20821843D-02  0.55596129D-02  0.53770154D-02  0.16757808D-02
MO   11     MO 0.0        OCC NO =    2.0000000  ORB. ENERGY =   -0.710040
 -0.20772006D-01 -0.20089779D-01 -0.62611069D-02 -0.41430013D-02  0.55415989D-02
  0.41823271D-02 -0.19934995D-01 -0.12535660D-01 -0.19858589D-02 -0.27743574D-03
 -0.17445904D-03 -0.27637240D-04  0.47889451D-03  0.30114173D-03  0.47705904D-04
  0.45077721D-01  0.43597208D-01  0.13587346D-01  0.93087487D-02 -0.12451203D-01
 -0.93971083D-02  0.54194493D-02  0.34078952D-02  0.53986780D-03 -0.22489479D-02
 -0.14141988D-02 -0.22403283D-03  0.16770747D-02  0.10545896D-02  0.16706469D-03
  0.21219339D-01  0.20522420D-01  0.63959422D-02  0.88329829D-03 -0.11814828D-02
 -0.89168265D-03  0.21957152D-01  0.13807247D-01  0.21872996D-02  0.18097395D-01
  0.11380128D-01  0.18028032D-02 -0.14364499D-01 -0.90327827D-02 -0.14309444D-02
 -0.93508194D-01 -0.90437038D-01 -0.28185279D-01 -0.23969014D-01  0.32060493D-01
  0.24196534D-01 -0.15155337D+00 -0.95300829D-01 -0.15097255D-01  0.97429653D-02
  0.61266381D-02  0.97056255D-03 -0.55758532D-02 -0.35062461D-02 -0.55544838D-03
  0.34717987D+00  0.33577725D+00  0.10464710D+00  0.60635621D-01 -0.81105041D-01
 -0.61211180D-01 -0.95993965D-01 -0.60363582D-01 -0.95626046D-02  0.16665632D+00
  0.10479797D+00  0.16601757D-01 -0.12833492D+00 -0.80700444D-01 -0.12784305D-01
 -0.27321593D+00 -0.26424254D+00 -0.82352861D-01 -0.50970565D-01  0.68177248D-01
  0.51454383D-01  0.13027747D+00  0.81921974D-01  0.12977816D-01  0.15663172D+00
  0.98494231D-01  0.15603139D-01 -0.12353228D+00 -0.77680412D-01 -0.12305881D-01
  0.26516708D-02  0.25645805D-02  0.79926771D-03  0.48415963D-02  0.46825810D-02
  0.14593560D-02  0.48414116D-02  0.46824025D-02  0.14593003D-02 -0.47657690D-02
 -0.46092442D-02 -0.14365001D-02 -0.47656467D-02 -0.46091259D-02 -0.14364632D-02
 -0.92828694D-01 -0.89779869D-01 -0.27980463D-01  0.72859844D-01  0.70466868D-01
  0.21961444D-01  0.47917795D-01  0.46344005D-01  0.14443402D-01
MO   12     MO 0.0        OCC NO =    2.0000000  ORB. ENERGY =   -0.589240
  0.93000106D-02  0.89945650D-02  0.28032131D-02  0.15243662D-02 -0.20389630D-02
 -0.15388357D-02  0.64274619D-01  0.40417606D-01  0.64028272D-02 -0.24477952D-01
 -0.15392394D-01 -0.24384135D-02  0.18196782D-01  0.11442625D-01  0.18127039D-02
 -0.12858552D-01 -0.12436231D-01 -0.38758302D-02 -0.26203507D-02  0.35049307D-02
  0.26452233D-02 -0.78088062D-01 -0.49103870D-01 -0.77788772D-02  0.94193010D-02
  0.59231093D-02  0.93831993D-03 -0.62815583D-02 -0.39500125D-02 -0.62574828D-03
 -0.20816544D+00 -0.20132854D+00 -0.62745314D-01 -0.39270516D-01  0.52527488D-01
  0.39643276D-01 -0.13239595D+00 -0.83254129D-01 -0.13188851D-01 -0.12613339D+00
 -0.79316065D-01 -0.12564996D-01  0.99845195D-01  0.62785339D-01  0.99462515D-02
  0.39678088D+00  0.38374913D+00  0.11959786D+00  0.11224786D+00 -0.15014058D+00
 -0.11331334D+00  0.64699178D+00  0.40684580D+00  0.64451219D-01  0.39795915D+00
  0.25024740D+00  0.39643398D-01 -0.31804057D+00 -0.19999245D+00 -0.31682168D-01
  0.97027719D-01  0.93840982D-01  0.29246136D-01  0.17376487D-01 -0.23242455D-01
 -0.17541427D-01 -0.94037417D-01 -0.59133253D-01 -0.93676998D-02 -0.15108250D+00
 -0.95004731D-01 -0.15050344D-01  0.11873926D+00  0.74666435D-01  0.11828417D-01
 -0.37635590D-01 -0.36399503D-01 -0.11344135D-01 -0.97460073D-02  0.13036072D-01
  0.98385174D-02  0.28263317D+00  0.17772733D+00  0.28154991D-01  0.12552518D-01
  0.78933601D-02  0.12504407D-02 -0.13499321D-01 -0.84887356D-02 -0.13447582D-02
 -0.13226338D-01 -0.12791938D-01 -0.39866883D-02 -0.59647877D-02 -0.57688829D-02
 -0.17979088D-02 -0.59613771D-02 -0.57655843D-02 -0.17968808D-02 -0.47190697D-02
 -0.45640786D-02 -0.14224239D-02 -0.47231111D-02 -0.45679873D-02 -0.14236421D-02
  0.29912926D-01  0.28930479D-01  0.90163665D-02  0.75085206D-02  0.72619141D-02
  0.22632214D-02  0.72110290D-01  0.69741932D-01  0.21735513D-01
MO   13     MO 0.0        OCC NO =    2.0000000  ORB. ENERGY =   -0.586124
 -0.15835061D-05 -0.15314981D-05 -0.47730107D-06 -0.37513908D-06  0.50177882D-06
  0.37869993D-06  0.32287798D-02  0.20303434D-02  0.32164048D-03  0.19012771D+00
  0.11955741D+00  0.18939900D-01  0.24446017D+00  0.15372312D+00  0.24352322D-01
  0.20594488D-05  0.19918091D-05  0.62075991D-06  0.39254222D-06 -0.52505693D-06
 -0.39626827D-06  0.38844753D-02  0.24426623D-02  0.38695871D-03  0.22836127D+00
  0.14359970D+00  0.22748603D-01  0.29364106D+00  0.18464938D+00  0.29251562D-01
  0.70965598D-05  0.68634835D-05  0.21390481D-05  0.12128178D-05 -0.16222418D-05
 -0.12243300D-05  0.40807114D-03  0.25660609D-03  0.40650712D-04  0.23688991D-01
  0.14896274D-01  0.23598198D-02  0.30453370D-01  0.19149897D-01  0.30336651D-02
 -0.13614922D-04 -0.13167757D-04 -0.41038154D-05 -0.38207294D-05  0.51105342D-05
  0.38569967D-05 -0.52808753D-04 -0.33207562D-04 -0.52606365D-05 -0.23252473D-02
 -0.14621779D-02 -0.23163358D-03 -0.29471099D-02 -0.18532218D-02 -0.29358151D-03
 -0.12224101D-05 -0.11822618D-05 -0.36845937D-06 -0.17957658D-06  0.24019819D-06
  0.18128114D-06 -0.10608037D-03 -0.66706186D-04 -0.10567379D-04 -0.63310415D-02
 -0.39811289D-02 -0.63067763D-03 -0.81453973D-02 -0.51220445D-02 -0.81141782D-03
  0.36996364D-06  0.35781272D-06  0.11151460D-06  0.11424075D-06 -0.15280623D-06
 -0.11532513D-06 -0.45104860D-04 -0.28363147D-04 -0.44931986D-05 -0.24808453D-02
 -0.15600221D-02 -0.24713369D-03 -0.31872517D-02 -0.20042294D-02 -0.31750358D-03
  0.31586888D-05  0.30549462D-05  0.95209328D-06 -0.65173026D-01 -0.63032512D-01
 -0.19644481D-01  0.65172404D-01  0.63031911D-01  0.19644293D-01  0.82037658D-01
  0.79343250D-01  0.24727825D-01 -0.82038174D-01 -0.79343749D-01 -0.24727980D-01
 -0.37878121D-06 -0.36634069D-06 -0.11417239D-06 -0.53697262D-06 -0.51933653D-06
 -0.16185451D-06 -0.56574211D-06 -0.54716113D-06 -0.17052622D-06
MO   14     MO 0.0        OCC NO =    2.0000000  ORB. ENERGY =   -0.562714
 -0.97835974D-03 -0.94622691D-03 -0.29489760D-03 -0.49220310D-03  0.65836141D-03
  0.49687514D-03 -0.70225941D-02 -0.44159957D-02 -0.69956784D-03 -0.46839349D-01
 -0.29453840D-01 -0.46659827D-02  0.36525153D-01  0.22967997D-01  0.36385162D-02
  0.44907185D-01  0.43432272D-01  0.13535943D-01  0.98130965D-02 -0.13125809D-01
 -0.99062434D-02 -0.27113076D-01 -0.17049430D-01 -0.27009159D-02  0.97109528D-02
  0.61065078D-02  0.96737334D-03 -0.71870015D-02 -0.45193795D-02 -0.71594557D-03
 -0.16568494D+00 -0.16024325D+00 -0.49940824D-01 -0.28428436D-01  0.38025330D-01
  0.28698282D-01 -0.14117788D+00 -0.88776444D-01 -0.14063679D-01 -0.87868880D-01
 -0.55254311D-01 -0.87532103D-02  0.70201449D-01  0.44144556D-01  0.69932386D-02
  0.29143381D+00  0.28186204D+00  0.87844102D-01  0.83486945D-01 -0.11167053D+00
 -0.84279424D-01  0.46254110D+00  0.29085826D+00  0.46076842D-01  0.45501707D+00